s 0.032821055 _1_ RTR  --- 0 message 32 [0 0 0 0] ------- [1:255 -1:255 32 0] 
r 0.033801388 _0_ RTR  --- 0 message 32 [0 ffffffff 1 800] ------- [1:255 -1:255 32 0] 
r 0.033801800 _2_ RTR  --- 0 message 32 [0 ffffffff 1 800] ------- [1:255 -1:255 32 0] 
s 0.178591360 _2_ RTR  --- 1 message 32 [0 0 0 0] ------- [2:255 -1:255 32 0] 
r 0.179672106 _1_ RTR  --- 1 message 32 [0 ffffffff 2 800] ------- [2:255 -1:255 32 0] 
s 1.113402886 _0_ RTR  --- 2 message 32 [0 0 0 0] ------- [0:255 -1:255 32 0] 
r 1.114383219 _1_ RTR  --- 2 message 32 [0 ffffffff 0 800] ------- [0:255 -1:255 32 0] 
M 10.00000 2 (450.00, 350.00, 0.00), (50.00, 350.00), 10.00
s 10.000000000 _0_ AGT  --- 3 tcp 40 [0 0 0 0] ------- [0:0 2:0 32 0] [0 0] 0 0
r 10.000000000 _0_ RTR  --- 3 tcp 40 [0 0 0 0] ------- [0:0 2:0 32 0] [0 0] 0 0
s 12.038038368 _2_ RTR  --- 5 message 32 [0 0 0 0] ------- [2:255 -1:255 32 0] 
r 12.039339053 _1_ RTR  --- 5 message 32 [0 ffffffff 2 800] ------- [2:255 -1:255 32 0] 
s 12.042398665 _0_ RTR  --- 4 message 32 [0 0 0 0] ------- [0:255 -1:255 32 0] 
r 12.043538999 _1_ RTR  --- 4 message 32 [0 ffffffff 0 800] ------- [0:255 -1:255 32 0] 
s 12.182252985 _1_ RTR  --- 6 message 32 [0 0 0 0] ------- [1:255 -1:255 32 0] 
r 12.183093318 _0_ RTR  --- 6 message 32 [0 ffffffff 1 800] ------- [1:255 -1:255 32 0] 
s 12.183093318 _0_ RTR  --- 3 tcp 80 [0 0 0 0] ------- [0:0 2:0 32 1] [0 0] 0 0
r 12.183093666 _2_ RTR  --- 6 message 32 [0 ffffffff 1 800] ------- [1:255 -1:255 32 0] 
r 12.188846652 _1_ RTR  --- 3 tcp 80 [13a 1 0 800] ------- [0:0 2:0 32 1] [0 0] 1 0
f 12.188846652 _1_ RTR  --- 3 tcp 80 [13a 1 0 800] ------- [0:0 2:0 31 2] [0 0] 1 0
r 12.194266417 _2_ AGT  --- 3 tcp 80 [13a 2 1 800] ------- [0:0 2:0 31 2] [0 0] 2 0
s 12.194266417 _2_ AGT  --- 7 ack 40 [0 0 0 0] ------- [2:0 0:0 32 0] [0 0] 0 0
r 12.194266417 _2_ RTR  --- 7 ack 40 [0 0 0 0] ------- [2:0 0:0 32 0] [0 0] 0 0
s 12.523333008 _0_ RTR  --- 8 message 56 [0 0 0 0] ------- [0:255 -1:255 32 0] 
r 12.524445342 _1_ RTR  --- 8 message 56 [0 ffffffff 0 800] ------- [0:255 -1:255 32 0] 
s 13.000000000 _0_ AGT  --- 9 tcp 40 [0 0 0 0] ------- [0:0 2:0 32 0] [0 0] 0 0
r 13.000000000 _0_ RTR  --- 9 tcp 40 [0 0 0 0] ------- [0:0 2:0 32 0] [0 0] 0 0
s 13.000000000 _0_ RTR  --- 9 tcp 60 [0 0 0 0] ------- [0:0 2:0 32 1] [0 0] 0 0
r 13.001941000 _1_ RTR  --- 9 tcp 60 [13a 1 0 800] ------- [0:0 2:0 32 1] [0 0] 1 0
f 13.001941000 _1_ RTR  --- 9 tcp 60 [13a 1 0 800] ------- [0:0 2:0 31 2] [0 0] 1 0
r 13.004126972 _2_ AGT  --- 9 tcp 60 [13a 2 1 800] ------- [0:0 2:0 31 2] [0 0] 2 0
s 13.004126972 _2_ AGT  --- 10 ack 40 [0 0 0 0] ------- [2:0 0:0 32 0] [0 0] 0 0
r 13.004126972 _2_ RTR  --- 10 ack 40 [0 0 0 0] ------- [2:0 0:0 32 0] [0 0] 0 0
s 13.004126972 _2_ RTR  --- 10 ack 60 [0 0 0 0] ------- [2:0 0:0 32 0] [0 0] 0 0
s 13.183028733 _1_ RTR  --- 11 message 32 [0 0 0 0] ------- [1:255 -1:255 32 0] 
r 13.184129066 _0_ RTR  --- 11 message 32 [0 ffffffff 1 800] ------- [1:255 -1:255 32 0] 
r 13.184129385 _2_ RTR  --- 11 message 32 [0 ffffffff 1 800] ------- [1:255 -1:255 32 0] 
s 13.824559567 _2_ RTR  --- 12 message 44 [0 0 0 0] ------- [2:255 -1:255 32 0] 
r 13.825476201 _1_ RTR  --- 12 message 44 [0 ffffffff 2 800] ------- [2:255 -1:255 32 0] 
s 14.277860513 _1_ RTR  --- 13 message 32 [0 0 0 0] ------- [1:255 -1:255 32 0] 
r 14.278900847 _0_ RTR  --- 13 message 32 [0 ffffffff 1 800] ------- [1:255 -1:255 32 0] 
r 14.278901135 _2_ RTR  --- 13 message 32 [0 ffffffff 1 800] ------- [1:255 -1:255 32 0] 
s 19.000000000 _0_ AGT  --- 14 tcp 40 [0 0 0 0] ------- [0:0 2:0 32 0] [0 0] 0 0
r 19.000000000 _0_ RTR  --- 14 tcp 40 [0 0 0 0] ------- [0:0 2:0 32 0] [0 0] 0 0
s 19.000000000 _0_ RTR  --- 14 tcp 60 [0 0 0 0] ------- [0:0 2:0 32 1] [0 0] 0 0
r 19.002021000 _1_ RTR  --- 14 tcp 60 [13a 1 0 800] ------- [0:0 2:0 32 1] [0 0] 1 0
f 19.002021000 _1_ RTR  --- 14 tcp 60 [13a 1 0 800] ------- [0:0 2:0 31 2] [0 0] 1 0
r 19.004006486 _2_ AGT  --- 14 tcp 60 [13a 2 1 800] ------- [0:0 2:0 31 2] [0 0] 2 0
s 19.004006486 _2_ AGT  --- 15 ack 40 [0 0 0 0] ------- [2:0 0:0 32 0] [0 0] 0 0
r 19.004006486 _2_ RTR  --- 15 ack 40 [0 0 0 0] ------- [2:0 0:0 32 0] [0 0] 0 0
s 19.004006486 _2_ RTR  --- 15 ack 60 [0 0 0 0] ------- [2:0 0:0 32 0] [0 0] 0 0
D 19.004006486 _2_ IFQ  ARP 10 ack 60 [0 0 2 800] ------- [2:0 0:0 32 0] [0 0] 0 0
r 19.009486812 _0_ AGT  --- 15 ack 60 [13a 0 2 800] ------- [2:0 0:0 32 0] [0 0] 1 0
s 19.009486812 _0_ AGT  --- 16 tcp 1040 [0 0 0 0] ------- [0:0 2:0 32 0] [1 0] 0 0
r 19.009486812 _0_ RTR  --- 16 tcp 1040 [0 0 0 0] ------- [0:0 2:0 32 0] [1 0] 0 0
s 19.009486812 _0_ RTR  --- 16 tcp 1060 [0 0 0 0] ------- [0:0 2:0 32 1] [1 0] 0 0
r 19.019771812 _1_ RTR  --- 16 tcp 1060 [13a 1 0 800] ------- [0:0 2:0 32 1] [1 0] 1 0
f 19.019771812 _1_ RTR  --- 16 tcp 1060 [13a 1 0 800] ------- [0:0 2:0 31 2] [1 0] 1 0
r 19.030217297 _2_ AGT  --- 16 tcp 1060 [13a 2 1 800] ------- [0:0 2:0 31 2] [1 0] 2 0
s 19.030217297 _2_ AGT  --- 17 ack 40 [0 0 0 0] ------- [2:0 0:0 32 0] [1 0] 0 0
r 19.030217297 _2_ RTR  --- 17 ack 40 [0 0 0 0] ------- [2:0 0:0 32 0] [1 0] 0 0
s 19.030217297 _2_ RTR  --- 17 ack 60 [0 0 0 0] ------- [2:0 0:0 32 0] [1 0] 0 0
r 19.032403578 _0_ AGT  --- 17 ack 60 [13a 0 2 800] ------- [2:0 0:0 32 0] [1 0] 1 0
s 19.032403578 _0_ AGT  --- 18 tcp 1040 [0 0 0 0] ------- [0:0 2:0 32 0] [2 0] 0 0
r 19.032403578 _0_ RTR  --- 18 tcp 1040 [0 0 0 0] ------- [0:0 2:0 32 0] [2 0] 0 0
s 19.032403578 _0_ RTR  --- 18 tcp 1060 [0 0 0 0] ------- [0:0 2:0 32 1] [2 0] 0 0
s 19.032403578 _0_ AGT  --- 19 tcp 1040 [0 0 0 0] ------- [0:0 2:0 32 0] [3 0] 0 0
r 19.032403578 _0_ RTR  --- 19 tcp 1040 [0 0 0 0] ------- [0:0 2:0 32 0] [3 0] 0 0
s 19.032403578 _0_ RTR  --- 19 tcp 1060 [0 0 0 0] ------- [0:0 2:0 32 1] [3 0] 0 0
r 19.042468578 _1_ RTR  --- 18 tcp 1060 [13a 1 0 800] ------- [0:0 2:0 32 1] [2 0] 1 0
f 19.042468578 _1_ RTR  --- 18 tcp 1060 [13a 1 0 800] ------- [0:0 2:0 31 2] [2 0] 1 0
r 19.052513911 _1_ RTR  --- 19 tcp 1060 [13a 1 0 800] ------- [0:0 2:0 32 1] [3 0] 1 0
f 19.052513911 _1_ RTR  --- 19 tcp 1060 [13a 1 0 800] ------- [0:0 2:0 31 2] [3 0] 1 0
r 19.062639394 _2_ AGT  --- 18 tcp 1060 [13a 2 1 800] ------- [0:0 2:0 31 2] [2 0] 2 0
s 19.062639394 _2_ AGT  --- 20 ack 40 [0 0 0 0] ------- [2:0 0:0 32 0] [2 0] 0 0
r 19.062639394 _2_ RTR  --- 20 ack 40 [0 0 0 0] ------- [2:0 0:0 32 0] [2 0] 0 0
s 19.062639394 _2_ RTR  --- 20 ack 60 [0 0 0 0] ------- [2:0 0:0 32 0] [2 0] 0 0
r 19.064645673 _0_ AGT  --- 20 ack 60 [13a 0 2 800] ------- [2:0 0:0 32 0] [2 0] 1 0
s 19.064645673 _0_ AGT  --- 21 tcp 1040 [0 0 0 0] ------- [0:0 2:0 32 0] [4 0] 0 0
r 19.064645673 _0_ RTR  --- 21 tcp 1040 [0 0 0 0] ------- [0:0 2:0 32 0] [4 0] 0 0
s 19.064645673 _0_ RTR  --- 21 tcp 1060 [0 0 0 0] ------- [0:0 2:0 32 1] [4 0] 0 0
r 19.074850673 _1_ RTR  --- 21 tcp 1060 [13a 1 0 800] ------- [0:0 2:0 32 1] [4 0] 1 0
f 19.074850673 _1_ RTR  --- 21 tcp 1060 [13a 1 0 800] ------- [0:0 2:0 31 2] [4 0] 1 0
r 19.085236154 _2_ AGT  --- 19 tcp 1060 [13a 2 1 800] ------- [0:0 2:0 31 2] [3 0] 2 0
s 19.085236154 _2_ AGT  --- 22 ack 40 [0 0 0 0] ------- [2:0 0:0 32 0] [3 0] 0 0
r 19.085236154 _2_ RTR  --- 22 ack 40 [0 0 0 0] ------- [2:0 0:0 32 0] [3 0] 0 0
s 19.085236154 _2_ RTR  --- 22 ack 60 [0 0 0 0] ------- [2:0 0:0 32 0] [3 0] 0 0
r 19.095342128 _2_ AGT  --- 21 tcp 1060 [13a 2 1 800] ------- [0:0 2:0 31 2] [4 0] 2 0
s 19.095342128 _2_ AGT  --- 23 ack 40 [0 0 0 0] ------- [2:0 0:0 32 0] [4 0] 0 0
r 19.095342128 _2_ RTR  --- 23 ack 40 [0 0 0 0] ------- [2:0 0:0 32 0] [4 0] 0 0
s 19.095342128 _2_ RTR  --- 23 ack 60 [0 0 0 0] ------- [2:0 0:0 32 0] [4 0] 0 0
r 19.097788406 _0_ AGT  --- 22 ack 60 [13a 0 2 800] ------- [2:0 0:0 32 0] [3 0] 1 0
s 19.097788406 _0_ AGT  --- 24 tcp 1040 [0 0 0 0] ------- [0:0 2:0 32 0] [5 0] 0 0
r 19.097788406 _0_ RTR  --- 24 tcp 1040 [0 0 0 0] ------- [0:0 2:0 32 0] [5 0] 0 0
s 19.097788406 _0_ RTR  --- 24 tcp 1060 [0 0 0 0] ------- [0:0 2:0 32 1] [5 0] 0 0
r 19.108213406 _1_ RTR  --- 24 tcp 1060 [13a 1 0 800] ------- [0:0 2:0 32 1] [5 0] 1 0
f 19.108213406 _1_ RTR  --- 24 tcp 1060 [13a 1 0 800] ------- [0:0 2:0 31 2] [5 0] 1 0
r 19.110320176 _0_ AGT  --- 23 ack 60 [13a 0 2 800] ------- [2:0 0:0 32 0] [4 0] 1 0
s 19.110320176 _0_ AGT  --- 25 tcp 1040 [0 0 0 0] ------- [0:0 2:0 32 0] [6 0] 0 0
r 19.110320176 _0_ RTR  --- 25 tcp 1040 [0 0 0 0] ------- [0:0 2:0 32 0] [6 0] 0 0
s 19.110320176 _0_ RTR  --- 25 tcp 1060 [0 0 0 0] ------- [0:0 2:0 32 1] [6 0] 0 0
s 19.110320176 _0_ AGT  --- 26 tcp 1040 [0 0 0 0] ------- [0:0 2:0 32 0] [7 0] 0 0
r 19.110320176 _0_ RTR  --- 26 tcp 1040 [0 0 0 0] ------- [0:0 2:0 32 0] [7 0] 0 0
s 19.110320176 _0_ RTR  --- 26 tcp 1060 [0 0 0 0] ------- [0:0 2:0 32 1] [7 0] 0 0
r 19.121251988 _2_ AGT  --- 24 tcp 1060 [13a 2 1 800] ------- [0:0 2:0 31 2] [5 0] 2 0
s 19.121251988 _2_ AGT  --- 27 ack 40 [0 0 0 0] ------- [2:0 0:0 32 0] [5 0] 0 0
r 19.121251988 _2_ RTR  --- 27 ack 40 [0 0 0 0] ------- [2:0 0:0 32 0] [5 0] 0 0
s 19.121251988 _2_ RTR  --- 27 ack 60 [0 0 0 0] ------- [2:0 0:0 32 0] [5 0] 0 0
r 19.123378264 _0_ AGT  --- 27 ack 60 [13a 0 2 800] ------- [2:0 0:0 32 0] [5 0] 1 0
s 19.123378264 _0_ AGT  --- 28 tcp 1040 [0 0 0 0] ------- [0:0 2:0 32 0] [8 0] 0 0
r 19.123378264 _0_ RTR  --- 28 tcp 1040 [0 0 0 0] ------- [0:0 2:0 32 0] [8 0] 0 0
s 19.123378264 _0_ RTR  --- 28 tcp 1060 [0 0 0 0] ------- [0:0 2:0 32 1] [8 0] 0 0
r 19.133563264 _1_ RTR  --- 25 tcp 1060 [13a 1 0 800] ------- [0:0 2:0 32 1] [6 0] 1 0
f 19.133563264 _1_ RTR  --- 25 tcp 1060 [13a 1 0 800] ------- [0:0 2:0 31 2] [6 0] 1 0
r 19.143728598 _1_ RTR  --- 26 tcp 1060 [13a 1 0 800] ------- [0:0 2:0 32 1] [7 0] 1 0
f 19.143728598 _1_ RTR  --- 26 tcp 1060 [13a 1 0 800] ------- [0:0 2:0 31 2] [7 0] 1 0
r 19.153814074 _2_ AGT  --- 25 tcp 1060 [13a 2 1 800] ------- [0:0 2:0 31 2] [6 0] 2 0
s 19.153814074 _2_ AGT  --- 29 ack 40 [0 0 0 0] ------- [2:0 0:0 32 0] [6 0] 0 0
r 19.153814074 _2_ RTR  --- 29 ack 40 [0 0 0 0] ------- [2:0 0:0 32 0] [6 0] 0 0
s 19.153814074 _2_ RTR  --- 29 ack 60 [0 0 0 0] ------- [2:0 0:0 32 0] [6 0] 0 0
r 19.163879832 _1_ RTR  --- 28 tcp 1060 [13a 1 0 800] ------- [0:0 2:0 32 1] [8 0] 1 0
f 19.163879832 _1_ RTR  --- 28 tcp 1060 [13a 1 0 800] ------- [0:0 2:0 31 2] [8 0] 1 0
r 19.174185306 _2_ AGT  --- 26 tcp 1060 [13a 2 1 800] ------- [0:0 2:0 31 2] [7 0] 2 0
s 19.174185306 _2_ AGT  --- 30 ack 40 [0 0 0 0] ------- [2:0 0:0 32 0] [7 0] 0 0
r 19.174185306 _2_ RTR  --- 30 ack 40 [0 0 0 0] ------- [2:0 0:0 32 0] [7 0] 0 0
s 19.174185306 _2_ RTR  --- 30 ack 60 [0 0 0 0] ------- [2:0 0:0 32 0] [7 0] 0 0
r 19.176231581 _0_ AGT  --- 29 ack 60 [13a 0 2 800] ------- [2:0 0:0 32 0] [6 0] 1 0
s 19.176231581 _0_ AGT  --- 31 tcp 1040 [0 0 0 0] ------- [0:0 2:0 32 0] [9 0] 0 0
r 19.176231581 _0_ RTR  --- 31 tcp 1040 [0 0 0 0] ------- [0:0 2:0 32 0] [9 0] 0 0
s 19.176231581 _0_ RTR  --- 31 tcp 1060 [0 0 0 0] ------- [0:0 2:0 32 1] [9 0] 0 0
r 19.178218613 _0_ AGT  --- 30 ack 60 [13a 0 2 800] ------- [2:0 0:0 32 0] [7 0] 1 0
s 19.178218613 _0_ AGT  --- 32 tcp 1040 [0 0 0 0] ------- [0:0 2:0 32 0] [10 0] 0 0
r 19.178218613 _0_ RTR  --- 32 tcp 1040 [0 0 0 0] ------- [0:0 2:0 32 0] [10 0] 0 0
s 19.178218613 _0_ RTR  --- 32 tcp 1060 [0 0 0 0] ------- [0:0 2:0 32 1] [10 0] 0 0
s 19.178218613 _0_ AGT  --- 33 tcp 1040 [0 0 0 0] ------- [0:0 2:0 32 0] [11 0] 0 0
r 19.178218613 _0_ RTR  --- 33 tcp 1040 [0 0 0 0] ------- [0:0 2:0 32 0] [11 0] 0 0
s 19.178218613 _0_ RTR  --- 33 tcp 1060 [0 0 0 0] ------- [0:0 2:0 32 1] [11 0] 0 0
r 19.188324419 _2_ AGT  --- 28 tcp 1060 [13a 2 1 800] ------- [0:0 2:0 31 2] [8 0] 2 0
s 19.188324419 _2_ AGT  --- 34 ack 40 [0 0 0 0] ------- [2:0 0:0 32 0] [8 0] 0 0
r 19.188324419 _2_ RTR  --- 34 ack 40 [0 0 0 0] ------- [2:0 0:0 32 0] [8 0] 0 0
s 19.188324419 _2_ RTR  --- 34 ack 60 [0 0 0 0] ------- [2:0 0:0 32 0] [8 0] 0 0
r 19.190330693 _0_ AGT  --- 34 ack 60 [13a 0 2 800] ------- [2:0 0:0 32 0] [8 0] 1 0
s 19.190330693 _0_ AGT  --- 35 tcp 1040 [0 0 0 0] ------- [0:0 2:0 32 0] [12 0] 0 0
r 19.190330693 _0_ RTR  --- 35 tcp 1040 [0 0 0 0] ------- [0:0 2:0 32 0] [12 0] 0 0
s 19.190330693 _0_ RTR  --- 35 tcp 1060 [0 0 0 0] ------- [0:0 2:0 32 1] [12 0] 0 0
r 19.200415693 _1_ RTR  --- 31 tcp 1060 [13a 1 0 800] ------- [0:0 2:0 32 1] [9 0] 1 0
f 19.200415693 _1_ RTR  --- 31 tcp 1060 [13a 1 0 800] ------- [0:0 2:0 31 2] [9 0] 1 0
r 19.210681165 _2_ AGT  --- 31 tcp 1060 [13a 2 1 800] ------- [0:0 2:0 31 2] [9 0] 2 0
s 19.210681165 _2_ AGT  --- 36 ack 40 [0 0 0 0] ------- [2:0 0:0 32 0] [9 0] 0 0
r 19.210681165 _2_ RTR  --- 36 ack 40 [0 0 0 0] ------- [2:0 0:0 32 0] [9 0] 0 0
s 19.210681165 _2_ RTR  --- 36 ack 60 [0 0 0 0] ------- [2:0 0:0 32 0] [9 0] 0 0
r 19.220806922 _1_ RTR  --- 32 tcp 1060 [13a 1 0 800] ------- [0:0 2:0 32 1] [10 0] 1 0
f 19.220806922 _1_ RTR  --- 32 tcp 1060 [13a 1 0 800] ------- [0:0 2:0 31 2] [10 0] 1 0
r 19.230952256 _1_ RTR  --- 33 tcp 1060 [13a 1 0 800] ------- [0:0 2:0 32 1] [11 0] 1 0
f 19.230952256 _1_ RTR  --- 33 tcp 1060 [13a 1 0 800] ------- [0:0 2:0 31 2] [11 0] 1 0
r 19.241843589 _1_ RTR  --- 35 tcp 1060 [13a 1 0 800] ------- [0:0 2:0 32 1] [12 0] 1 0
f 19.241843589 _1_ RTR  --- 35 tcp 1060 [13a 1 0 800] ------- [0:0 2:0 31 2] [12 0] 1 0
r 19.243930349 _0_ AGT  --- 36 ack 60 [13a 0 2 800] ------- [2:0 0:0 32 0] [9 0] 1 0
s 19.243930349 _0_ AGT  --- 37 tcp 1040 [0 0 0 0] ------- [0:0 2:0 32 0] [13 0] 0 0
r 19.243930349 _0_ RTR  --- 37 tcp 1040 [0 0 0 0] ------- [0:0 2:0 32 0] [13 0] 0 0
s 19.243930349 _0_ RTR  --- 37 tcp 1060 [0 0 0 0] ------- [0:0 2:0 32 1] [13 0] 0 0
r 19.253975349 _1_ RTR  --- 37 tcp 1060 [13a 1 0 800] ------- [0:0 2:0 32 1] [13 0] 1 0
f 19.253975349 _1_ RTR  --- 37 tcp 1060 [13a 1 0 800] ------- [0:0 2:0 31 2] [13 0] 1 0
r 19.264680817 _2_ AGT  --- 32 tcp 1060 [13a 2 1 800] ------- [0:0 2:0 31 2] [10 0] 2 0
s 19.264680817 _2_ AGT  --- 38 ack 40 [0 0 0 0] ------- [2:0 0:0 32 0] [10 0] 0 0
r 19.264680817 _2_ RTR  --- 38 ack 40 [0 0 0 0] ------- [2:0 0:0 32 0] [10 0] 0 0
s 19.264680817 _2_ RTR  --- 38 ack 60 [0 0 0 0] ------- [2:0 0:0 32 0] [10 0] 0 0
r 19.274686773 _2_ AGT  --- 33 tcp 1060 [13a 2 1 800] ------- [0:0 2:0 31 2] [11 0] 2 0
s 19.274686773 _2_ AGT  --- 39 ack 40 [0 0 0 0] ------- [2:0 0:0 32 0] [11 0] 0 0
r 19.274686773 _2_ RTR  --- 39 ack 40 [0 0 0 0] ------- [2:0 0:0 32 0] [11 0] 0 0
s 19.274686773 _2_ RTR  --- 39 ack 60 [0 0 0 0] ------- [2:0 0:0 32 0] [11 0] 0 0
r 19.284692728 _2_ AGT  --- 35 tcp 1060 [13a 2 1 800] ------- [0:0 2:0 31 2] [12 0] 2 0
s 19.284692728 _2_ AGT  --- 40 ack 40 [0 0 0 0] ------- [2:0 0:0 32 0] [12 0] 0 0
r 19.284692728 _2_ RTR  --- 40 ack 40 [0 0 0 0] ------- [2:0 0:0 32 0] [12 0] 0 0
s 19.284692728 _2_ RTR  --- 40 ack 60 [0 0 0 0] ------- [2:0 0:0 32 0] [12 0] 0 0
r 19.294738683 _2_ AGT  --- 37 tcp 1060 [13a 2 1 800] ------- [0:0 2:0 31 2] [13 0] 2 0
s 19.294738683 _2_ AGT  --- 41 ack 40 [0 0 0 0] ------- [2:0 0:0 32 0] [13 0] 0 0
r 19.294738683 _2_ RTR  --- 41 ack 40 [0 0 0 0] ------- [2:0 0:0 32 0] [13 0] 0 0
s 19.294738683 _2_ RTR  --- 41 ack 60 [0 0 0 0] ------- [2:0 0:0 32 0] [13 0] 0 0
r 19.297044951 _0_ AGT  --- 38 ack 60 [13a 0 2 800] ------- [2:0 0:0 32 0] [10 0] 1 0
s 19.297044951 _0_ AGT  --- 42 tcp 1040 [0 0 0 0] ------- [0:0 2:0 32 0] [14 0] 0 0
r 19.297044951 _0_ RTR  --- 42 tcp 1040 [0 0 0 0] ------- [0:0 2:0 32 0] [14 0] 0 0
s 19.297044951 _0_ RTR  --- 42 tcp 1060 [0 0 0 0] ------- [0:0 2:0 32 1] [14 0] 0 0
r 19.307049951 _1_ RTR  --- 42 tcp 1060 [13a 1 0 800] ------- [0:0 2:0 32 1] [14 0] 1 0
f 19.307049951 _1_ RTR  --- 42 tcp 1060 [13a 1 0 800] ------- [0:0 2:0 31 2] [14 0] 1 0
r 19.309056707 _0_ AGT  --- 39 ack 60 [13a 0 2 800] ------- [2:0 0:0 32 0] [11 0] 1 0
s 19.309056707 _0_ AGT  --- 43 tcp 1040 [0 0 0 0] ------- [0:0 2:0 32 0] [15 0] 0 0
r 19.309056707 _0_ RTR  --- 43 tcp 1040 [0 0 0 0] ------- [0:0 2:0 32 0] [15 0] 0 0
s 19.309056707 _0_ RTR  --- 43 tcp 1060 [0 0 0 0] ------- [0:0 2:0 32 1] [15 0] 0 0
r 19.319402504 _2_ AGT  --- 42 tcp 1060 [13a 2 1 800] ------- [0:0 2:0 31 2] [14 0] 2 0
s 19.319402504 _2_ AGT  --- 44 ack 40 [0 0 0 0] ------- [2:0 0:0 32 0] [14 0] 0 0
r 19.319402504 _2_ RTR  --- 44 ack 40 [0 0 0 0] ------- [2:0 0:0 32 0] [14 0] 0 0
s 19.319402504 _2_ RTR  --- 44 ack 60 [0 0 0 0] ------- [2:0 0:0 32 0] [14 0] 0 0
r 19.321408771 _0_ AGT  --- 40 ack 60 [13a 0 2 800] ------- [2:0 0:0 32 0] [12 0] 1 0
s 19.321408771 _0_ AGT  --- 45 tcp 1040 [0 0 0 0] ------- [0:0 2:0 32 0] [16 0] 0 0
r 19.321408771 _0_ RTR  --- 45 tcp 1040 [0 0 0 0] ------- [0:0 2:0 32 0] [16 0] 0 0
s 19.321408771 _0_ RTR  --- 45 tcp 1060 [0 0 0 0] ------- [0:0 2:0 32 1] [16 0] 0 0
s 19.321408771 _0_ AGT  --- 46 tcp 1040 [0 0 0 0] ------- [0:0 2:0 32 0] [17 0] 0 0
r 19.321408771 _0_ RTR  --- 46 tcp 1040 [0 0 0 0] ------- [0:0 2:0 32 0] [17 0] 0 0
s 19.321408771 _0_ RTR  --- 46 tcp 1060 [0 0 0 0] ------- [0:0 2:0 32 1] [17 0] 0 0
r 19.331453771 _1_ RTR  --- 43 tcp 1060 [13a 1 0 800] ------- [0:0 2:0 32 1] [15 0] 1 0
f 19.331453771 _1_ RTR  --- 43 tcp 1060 [13a 1 0 800] ------- [0:0 2:0 31 2] [15 0] 1 0
r 19.341619105 _1_ RTR  --- 45 tcp 1060 [13a 1 0 800] ------- [0:0 2:0 32 1] [16 0] 1 0
f 19.341619105 _1_ RTR  --- 45 tcp 1060 [13a 1 0 800] ------- [0:0 2:0 31 2] [16 0] 1 0
r 19.343705858 _0_ AGT  --- 41 ack 60 [13a 0 2 800] ------- [2:0 0:0 32 0] [13 0] 1 0
s 19.343705858 _0_ AGT  --- 47 tcp 1040 [0 0 0 0] ------- [0:0 2:0 32 0] [18 0] 0 0
r 19.343705858 _0_ RTR  --- 47 tcp 1040 [0 0 0 0] ------- [0:0 2:0 32 0] [18 0] 0 0
s 19.343705858 _0_ RTR  --- 47 tcp 1060 [0 0 0 0] ------- [0:0 2:0 32 1] [18 0] 0 0
r 19.353851653 _2_ AGT  --- 43 tcp 1060 [13a 2 1 800] ------- [0:0 2:0 31 2] [15 0] 2 0
s 19.353851653 _2_ AGT  --- 48 ack 40 [0 0 0 0] ------- [2:0 0:0 32 0] [15 0] 0 0
r 19.353851653 _2_ RTR  --- 48 ack 40 [0 0 0 0] ------- [2:0 0:0 32 0] [15 0] 0 0
s 19.353851653 _2_ RTR  --- 48 ack 60 [0 0 0 0] ------- [2:0 0:0 32 0] [15 0] 0 0
r 19.355857918 _0_ AGT  --- 44 ack 60 [13a 0 2 800] ------- [2:0 0:0 32 0] [14 0] 1 0
s 19.355857918 _0_ AGT  --- 49 tcp 1040 [0 0 0 0] ------- [0:0 2:0 32 0] [19 0] 0 0
r 19.355857918 _0_ RTR  --- 49 tcp 1040 [0 0 0 0] ------- [0:0 2:0 32 0] [19 0] 0 0
s 19.355857918 _0_ RTR  --- 49 tcp 1060 [0 0 0 0] ------- [0:0 2:0 32 1] [19 0] 0 0
r 19.365983712 _2_ AGT  --- 45 tcp 1060 [13a 2 1 800] ------- [0:0 2:0 31 2] [16 0] 2 0
s 19.365983712 _2_ AGT  --- 50 ack 40 [0 0 0 0] ------- [2:0 0:0 32 0] [16 0] 0 0
r 19.365983712 _2_ RTR  --- 50 ack 40 [0 0 0 0] ------- [2:0 0:0 32 0] [16 0] 0 0
s 19.365983712 _2_ RTR  --- 50 ack 60 [0 0 0 0] ------- [2:0 0:0 32 0] [16 0] 0 0
r 19.368069977 _0_ AGT  --- 48 ack 60 [13a 0 2 800] ------- [2:0 0:0 32 0] [15 0] 1 0
s 19.368069977 _0_ AGT  --- 51 tcp 1040 [0 0 0 0] ------- [0:0 2:0 32 0] [20 0] 0 0
r 19.368069977 _0_ RTR  --- 51 tcp 1040 [0 0 0 0] ------- [0:0 2:0 32 0] [20 0] 0 0
s 19.368069977 _0_ RTR  --- 51 tcp 1060 [0 0 0 0] ------- [0:0 2:0 32 1] [20 0] 0 0
r 19.378114977 _1_ RTR  --- 46 tcp 1060 [13a 1 0 800] ------- [0:0 2:0 32 1] [17 0] 1 0
f 19.378114977 _1_ RTR  --- 46 tcp 1060 [13a 1 0 800] ------- [0:0 2:0 31 2] [17 0] 1 0
r 19.388100436 _2_ AGT  --- 46 tcp 1060 [13a 2 1 800] ------- [0:0 2:0 31 2] [17 0] 2 0
s 19.388100436 _2_ AGT  --- 52 ack 40 [0 0 0 0] ------- [2:0 0:0 32 0] [17 0] 0 0
r 19.388100436 _2_ RTR  --- 52 ack 40 [0 0 0 0] ------- [2:0 0:0 32 0] [17 0] 0 0
s 19.388100436 _2_ RTR  --- 52 ack 60 [0 0 0 0] ------- [2:0 0:0 32 0] [17 0] 0 0
r 19.390146700 _0_ AGT  --- 50 ack 60 [13a 0 2 800] ------- [2:0 0:0 32 0] [16 0] 1 0
s 19.390146700 _0_ AGT  --- 53 tcp 1040 [0 0 0 0] ------- [0:0 2:0 32 0] [21 0] 0 0
r 19.390146700 _0_ RTR  --- 53 tcp 1040 [0 0 0 0] ------- [0:0 2:0 32 0] [21 0] 0 0
s 19.390146700 _0_ RTR  --- 53 tcp 1060 [0 0 0 0] ------- [0:0 2:0 32 1] [21 0] 0 0
r 19.400631700 _1_ RTR  --- 47 tcp 1060 [13a 1 0 800] ------- [0:0 2:0 32 1] [18 0] 1 0
f 19.400631700 _1_ RTR  --- 47 tcp 1060 [13a 1 0 800] ------- [0:0 2:0 31 2] [18 0] 1 0
r 19.410657157 _2_ AGT  --- 47 tcp 1060 [13a 2 1 800] ------- [0:0 2:0 31 2] [18 0] 2 0
s 19.410657157 _2_ AGT  --- 54 ack 40 [0 0 0 0] ------- [2:0 0:0 32 0] [18 0] 0 0
r 19.410657157 _2_ RTR  --- 54 ack 40 [0 0 0 0] ------- [2:0 0:0 32 0] [18 0] 0 0
s 19.410657157 _2_ RTR  --- 54 ack 60 [0 0 0 0] ------- [2:0 0:0 32 0] [18 0] 0 0
r 19.412723420 _0_ AGT  --- 52 ack 60 [13a 0 2 800] ------- [2:0 0:0 32 0] [17 0] 1 0
s 19.412723420 _0_ AGT  --- 55 tcp 1040 [0 0 0 0] ------- [0:0 2:0 32 0] [22 0] 0 0
r 19.412723420 _0_ RTR  --- 55 tcp 1040 [0 0 0 0] ------- [0:0 2:0 32 0] [22 0] 0 0
s 19.412723420 _0_ RTR  --- 55 tcp 1060 [0 0 0 0] ------- [0:0 2:0 32 1] [22 0] 0 0
s 19.412723420 _0_ AGT  --- 56 tcp 1040 [0 0 0 0] ------- [0:0 2:0 32 0] [23 0] 0 0
r 19.412723420 _0_ RTR  --- 56 tcp 1040 [0 0 0 0] ------- [0:0 2:0 32 0] [23 0] 0 0
s 19.412723420 _0_ RTR  --- 56 tcp 1060 [0 0 0 0] ------- [0:0 2:0 32 1] [23 0] 0 0
r 19.423208420 _1_ RTR  --- 49 tcp 1060 [13a 1 0 800] ------- [0:0 2:0 32 1] [19 0] 1 0
f 19.423208420 _1_ RTR  --- 49 tcp 1060 [13a 1 0 800] ------- [0:0 2:0 31 2] [19 0] 1 0
r 19.425235168 _0_ AGT  --- 54 ack 60 [13a 0 2 800] ------- [2:0 0:0 32 0] [18 0] 1 0
s 19.425235168 _0_ AGT  --- 57 tcp 1040 [0 0 0 0] ------- [0:0 2:0 32 0] [24 0] 0 0
r 19.425235168 _0_ RTR  --- 57 tcp 1040 [0 0 0 0] ------- [0:0 2:0 32 0] [24 0] 0 0
s 19.425235168 _0_ RTR  --- 57 tcp 1060 [0 0 0 0] ------- [0:0 2:0 32 1] [24 0] 0 0
r 19.435320957 _2_ AGT  --- 49 tcp 1060 [13a 2 1 800] ------- [0:0 2:0 31 2] [19 0] 2 0
s 19.435320957 _2_ AGT  --- 58 ack 40 [0 0 0 0] ------- [2:0 0:0 32 0] [19 0] 0 0
r 19.435320957 _2_ RTR  --- 58 ack 40 [0 0 0 0] ------- [2:0 0:0 32 0] [19 0] 0 0
s 19.435320957 _2_ RTR  --- 58 ack 60 [0 0 0 0] ------- [2:0 0:0 32 0] [19 0] 0 0
r 19.445406711 _1_ RTR  --- 51 tcp 1060 [13a 1 0 800] ------- [0:0 2:0 32 1] [20 0] 1 0
f 19.445406711 _1_ RTR  --- 51 tcp 1060 [13a 1 0 800] ------- [0:0 2:0 31 2] [20 0] 1 0
r 19.455392044 _1_ RTR  --- 53 tcp 1060 [13a 1 0 800] ------- [0:0 2:0 32 1] [21 0] 1 0
f 19.455392044 _1_ RTR  --- 53 tcp 1060 [13a 1 0 800] ------- [0:0 2:0 31 2] [21 0] 1 0
r 19.465557497 _2_ AGT  --- 51 tcp 1060 [13a 2 1 800] ------- [0:0 2:0 31 2] [20 0] 2 0
s 19.465557497 _2_ AGT  --- 59 ack 40 [0 0 0 0] ------- [2:0 0:0 32 0] [20 0] 0 0
r 19.465557497 _2_ RTR  --- 59 ack 40 [0 0 0 0] ------- [2:0 0:0 32 0] [20 0] 0 0
s 19.465557497 _2_ RTR  --- 59 ack 60 [0 0 0 0] ------- [2:0 0:0 32 0] [20 0] 0 0
r 19.467703758 _0_ AGT  --- 58 ack 60 [13a 0 2 800] ------- [2:0 0:0 32 0] [19 0] 1 0
s 19.467703758 _0_ AGT  --- 60 tcp 1040 [0 0 0 0] ------- [0:0 2:0 32 0] [25 0] 0 0
r 19.467703758 _0_ RTR  --- 60 tcp 1040 [0 0 0 0] ------- [0:0 2:0 32 0] [25 0] 0 0
s 19.467703758 _0_ RTR  --- 60 tcp 1060 [0 0 0 0] ------- [0:0 2:0 32 1] [25 0] 0 0
r 19.477768758 _1_ RTR  --- 55 tcp 1060 [13a 1 0 800] ------- [0:0 2:0 32 1] [22 0] 1 0
f 19.477768758 _1_ RTR  --- 55 tcp 1060 [13a 1 0 800] ------- [0:0 2:0 31 2] [22 0] 1 0
r 19.487754091 _1_ RTR  --- 56 tcp 1060 [13a 1 0 800] ------- [0:0 2:0 32 1] [23 0] 1 0
f 19.487754091 _1_ RTR  --- 56 tcp 1060 [13a 1 0 800] ------- [0:0 2:0 31 2] [23 0] 1 0
r 19.497859424 _1_ RTR  --- 57 tcp 1060 [13a 1 0 800] ------- [0:0 2:0 32 1] [24 0] 1 0
f 19.497859424 _1_ RTR  --- 57 tcp 1060 [13a 1 0 800] ------- [0:0 2:0 31 2] [24 0] 1 0
r 19.499906166 _0_ AGT  --- 59 ack 60 [13a 0 2 800] ------- [2:0 0:0 32 0] [20 0] 1 0
s 19.499906166 _0_ AGT  --- 61 tcp 1040 [0 0 0 0] ------- [0:0 2:0 32 0] [26 0] 0 0
r 19.499906166 _0_ RTR  --- 61 tcp 1040 [0 0 0 0] ------- [0:0 2:0 32 0] [26 0] 0 0
s 19.499906166 _0_ RTR  --- 61 tcp 1060 [0 0 0 0] ------- [0:0 2:0 32 1] [26 0] 0 0
r 19.510011950 _2_ AGT  --- 53 tcp 1060 [13a 2 1 800] ------- [0:0 2:0 31 2] [21 0] 2 0
s 19.510011950 _2_ AGT  --- 62 ack 40 [0 0 0 0] ------- [2:0 0:0 32 0] [21 0] 0 0
r 19.510011950 _2_ RTR  --- 62 ack 40 [0 0 0 0] ------- [2:0 0:0 32 0] [21 0] 0 0
s 19.510011950 _2_ RTR  --- 62 ack 60 [0 0 0 0] ------- [2:0 0:0 32 0] [21 0] 0 0
r 19.512038208 _0_ AGT  --- 62 ack 60 [13a 0 2 800] ------- [2:0 0:0 32 0] [21 0] 1 0
s 19.512038208 _0_ AGT  --- 63 tcp 1040 [0 0 0 0] ------- [0:0 2:0 32 0] [27 0] 0 0
r 19.512038208 _0_ RTR  --- 63 tcp 1040 [0 0 0 0] ------- [0:0 2:0 32 0] [27 0] 0 0
s 19.512038208 _0_ RTR  --- 63 tcp 1060 [0 0 0 0] ------- [0:0 2:0 32 1] [27 0] 0 0
r 19.522183208 _1_ RTR  --- 60 tcp 1060 [13a 1 0 800] ------- [0:0 2:0 32 1] [25 0] 1 0
f 19.522183208 _1_ RTR  --- 60 tcp 1060 [13a 1 0 800] ------- [0:0 2:0 31 2] [25 0] 1 0
r 19.532308541 _1_ RTR  --- 61 tcp 1060 [13a 1 0 800] ------- [0:0 2:0 32 1] [26 0] 1 0
f 19.532308541 _1_ RTR  --- 61 tcp 1060 [13a 1 0 800] ------- [0:0 2:0 31 2] [26 0] 1 0
r 19.542493989 _2_ AGT  --- 55 tcp 1060 [13a 2 1 800] ------- [0:0 2:0 31 2] [22 0] 2 0
s 19.542493989 _2_ AGT  --- 64 ack 40 [0 0 0 0] ------- [2:0 0:0 32 0] [22 0] 0 0
r 19.542493989 _2_ RTR  --- 64 ack 40 [0 0 0 0] ------- [2:0 0:0 32 0] [22 0] 0 0
s 19.542493989 _2_ RTR  --- 64 ack 60 [0 0 0 0] ------- [2:0 0:0 32 0] [22 0] 0 0
r 19.544620246 _0_ AGT  --- 64 ack 60 [13a 0 2 800] ------- [2:0 0:0 32 0] [22 0] 1 0
s 19.544620246 _0_ AGT  --- 65 tcp 1040 [0 0 0 0] ------- [0:0 2:0 32 0] [28 0] 0 0
r 19.544620246 _0_ RTR  --- 65 tcp 1040 [0 0 0 0] ------- [0:0 2:0 32 0] [28 0] 0 0
s 19.544620246 _0_ RTR  --- 65 tcp 1060 [0 0 0 0] ------- [0:0 2:0 32 1] [28 0] 0 0
r 19.554845246 _1_ RTR  --- 63 tcp 1060 [13a 1 0 800] ------- [0:0 2:0 32 1] [27 0] 1 0
f 19.554845246 _1_ RTR  --- 63 tcp 1060 [13a 1 0 800] ------- [0:0 2:0 31 2] [27 0] 1 0
r 19.565030692 _2_ AGT  --- 56 tcp 1060 [13a 2 1 800] ------- [0:0 2:0 31 2] [23 0] 2 0
s 19.565030692 _2_ AGT  --- 66 ack 40 [0 0 0 0] ------- [2:0 0:0 32 0] [23 0] 0 0
r 19.565030692 _2_ RTR  --- 66 ack 40 [0 0 0 0] ------- [2:0 0:0 32 0] [23 0] 0 0
s 19.565030692 _2_ RTR  --- 66 ack 60 [0 0 0 0] ------- [2:0 0:0 32 0] [23 0] 0 0
r 19.575016619 _2_ AGT  --- 57 tcp 1060 [13a 2 1 800] ------- [0:0 2:0 31 2] [24 0] 2 0
s 19.575016619 _2_ AGT  --- 67 ack 40 [0 0 0 0] ------- [2:0 0:0 32 0] [24 0] 0 0
r 19.575016619 _2_ RTR  --- 67 ack 40 [0 0 0 0] ------- [2:0 0:0 32 0] [24 0] 0 0
s 19.575016619 _2_ RTR  --- 67 ack 60 [0 0 0 0] ------- [2:0 0:0 32 0] [24 0] 0 0
r 19.585082545 _2_ AGT  --- 60 tcp 1060 [13a 2 1 800] ------- [0:0 2:0 31 2] [25 0] 2 0
s 19.585082545 _2_ AGT  --- 68 ack 40 [0 0 0 0] ------- [2:0 0:0 32 0] [25 0] 0 0
r 19.585082545 _2_ RTR  --- 68 ack 40 [0 0 0 0] ------- [2:0 0:0 32 0] [25 0] 0 0
s 19.585082545 _2_ RTR  --- 68 ack 60 [0 0 0 0] ------- [2:0 0:0 32 0] [25 0] 0 0
r 19.595288297 _1_ RTR  --- 65 tcp 1060 [13a 1 0 800] ------- [0:0 2:0 32 1] [28 0] 1 0
f 19.595288297 _1_ RTR  --- 65 tcp 1060 [13a 1 0 800] ------- [0:0 2:0 31 2] [28 0] 1 0
r 19.597335032 _0_ AGT  --- 66 ack 60 [13a 0 2 800] ------- [2:0 0:0 32 0] [23 0] 1 0
s 19.597335032 _0_ AGT  --- 69 tcp 1040 [0 0 0 0] ------- [0:0 2:0 32 0] [29 0] 0 0
r 19.597335032 _0_ RTR  --- 69 tcp 1040 [0 0 0 0] ------- [0:0 2:0 32 0] [29 0] 0 0
s 19.597335032 _0_ RTR  --- 69 tcp 1060 [0 0 0 0] ------- [0:0 2:0 32 1] [29 0] 0 0
s 19.597335032 _0_ AGT  --- 70 tcp 1040 [0 0 0 0] ------- [0:0 2:0 32 0] [30 0] 0 0
r 19.597335032 _0_ RTR  --- 70 tcp 1040 [0 0 0 0] ------- [0:0 2:0 32 0] [30 0] 0 0
s 19.597335032 _0_ RTR  --- 70 tcp 1060 [0 0 0 0] ------- [0:0 2:0 32 1] [30 0] 0 0
r 19.607560032 _1_ RTR  --- 69 tcp 1060 [13a 1 0 800] ------- [0:0 2:0 32 1] [29 0] 1 0
f 19.607560032 _1_ RTR  --- 69 tcp 1060 [13a 1 0 800] ------- [0:0 2:0 31 2] [29 0] 1 0
r 19.617605474 _2_ AGT  --- 61 tcp 1060 [13a 2 1 800] ------- [0:0 2:0 31 2] [26 0] 2 0
s 19.617605474 _2_ AGT  --- 71 ack 40 [0 0 0 0] ------- [2:0 0:0 32 0] [26 0] 0 0
r 19.617605474 _2_ RTR  --- 71 ack 40 [0 0 0 0] ------- [2:0 0:0 32 0] [26 0] 0 0
s 19.617605474 _2_ RTR  --- 71 ack 60 [0 0 0 0] ------- [2:0 0:0 32 0] [26 0] 0 0
r 19.619671728 _0_ AGT  --- 67 ack 60 [13a 0 2 800] ------- [2:0 0:0 32 0] [24 0] 1 0
s 19.619671728 _0_ AGT  --- 72 tcp 1040 [0 0 0 0] ------- [0:0 2:0 32 0] [31 0] 0 0
r 19.619671728 _0_ RTR  --- 72 tcp 1040 [0 0 0 0] ------- [0:0 2:0 32 0] [31 0] 0 0
s 19.619671728 _0_ RTR  --- 72 tcp 1060 [0 0 0 0] ------- [0:0 2:0 32 1] [31 0] 0 0
r 19.621698732 _0_ AGT  --- 68 ack 60 [13a 0 2 800] ------- [2:0 0:0 32 0] [25 0] 1 0
s 19.621698732 _0_ AGT  --- 73 tcp 1040 [0 0 0 0] ------- [0:0 2:0 32 0] [32 0] 0 0
r 19.621698732 _0_ RTR  --- 73 tcp 1040 [0 0 0 0] ------- [0:0 2:0 32 0] [32 0] 0 0
s 19.621698732 _0_ RTR  --- 73 tcp 1060 [0 0 0 0] ------- [0:0 2:0 32 1] [32 0] 0 0
r 19.631863732 _1_ RTR  --- 70 tcp 1060 [13a 1 0 800] ------- [0:0 2:0 32 1] [30 0] 1 0
f 19.631863732 _1_ RTR  --- 70 tcp 1060 [13a 1 0 800] ------- [0:0 2:0 31 2] [30 0] 1 0
r 19.642069172 _2_ AGT  --- 63 tcp 1060 [13a 2 1 800] ------- [0:0 2:0 31 2] [27 0] 2 0
s 19.642069172 _2_ AGT  --- 74 ack 40 [0 0 0 0] ------- [2:0 0:0 32 0] [27 0] 0 0
r 19.642069172 _2_ RTR  --- 74 ack 40 [0 0 0 0] ------- [2:0 0:0 32 0] [27 0] 0 0
s 19.642069172 _2_ RTR  --- 74 ack 60 [0 0 0 0] ------- [2:0 0:0 32 0] [27 0] 0 0
r 19.652135092 _2_ AGT  --- 65 tcp 1060 [13a 2 1 800] ------- [0:0 2:0 31 2] [28 0] 2 0
s 19.652135092 _2_ AGT  --- 75 ack 40 [0 0 0 0] ------- [2:0 0:0 32 0] [28 0] 0 0
r 19.652135092 _2_ RTR  --- 75 ack 40 [0 0 0 0] ------- [2:0 0:0 32 0] [28 0] 0 0
s 19.652135092 _2_ RTR  --- 75 ack 60 [0 0 0 0] ------- [2:0 0:0 32 0] [28 0] 0 0
r 19.654201344 _0_ AGT  --- 71 ack 60 [13a 0 2 800] ------- [2:0 0:0 32 0] [26 0] 1 0
s 19.654201344 _0_ AGT  --- 76 tcp 1040 [0 0 0 0] ------- [0:0 2:0 32 0] [33 0] 0 0
r 19.654201344 _0_ RTR  --- 76 tcp 1040 [0 0 0 0] ------- [0:0 2:0 32 0] [33 0] 0 0
s 19.654201344 _0_ RTR  --- 76 tcp 1060 [0 0 0 0] ------- [0:0 2:0 32 1] [33 0] 0 0
r 19.656188346 _0_ AGT  --- 74 ack 60 [13a 0 2 800] ------- [2:0 0:0 32 0] [27 0] 1 0
s 19.656188346 _0_ AGT  --- 77 tcp 1040 [0 0 0 0] ------- [0:0 2:0 32 0] [34 0] 0 0
r 19.656188346 _0_ RTR  --- 77 tcp 1040 [0 0 0 0] ------- [0:0 2:0 32 0] [34 0] 0 0
s 19.656188346 _0_ RTR  --- 77 tcp 1060 [0 0 0 0] ------- [0:0 2:0 32 1] [34 0] 0 0
r 19.666333346 _1_ RTR  --- 72 tcp 1060 [13a 1 0 800] ------- [0:0 2:0 32 1] [31 0] 1 0