s 0.032821055 _1_ RTR  --- 0 message 32 [0 0 0 0] ------- [1:255 -1:255 32 0] 
r 0.033801388 _0_ RTR  --- 0 message 32 [0 ffffffff 1 800] ------- [1:255 -1:255 32 0] 
r 0.033801800 _2_ RTR  --- 0 message 32 [0 ffffffff 1 800] ------- [1:255 -1:255 32 0] 
s 0.178591360 _2_ RTR  --- 1 message 32 [0 0 0 0] ------- [2:255 -1:255 32 0] 
r 0.179672106 _1_ RTR  --- 1 message 32 [0 ffffffff 2 800] ------- [2:255 -1:255 32 0] 
s 1.113402886 _0_ RTR  --- 2 message 32 [0 0 0 0] ------- [0:255 -1:255 32 0] 
r 1.114383219 _1_ RTR  --- 2 message 32 [0 ffffffff 0 800] ------- [0:255 -1:255 32 0] 
M 10.00000 2 (450.00, 350.00, 0.00), (50.00, 350.00), 10.00
s 10.000000000 _0_ AGT  --- 3 tcp 40 [0 0 0 0] ------- [0:0 2:0 32 0] [0 0] 0 0
r 10.000000000 _0_ RTR  --- 3 tcp 40 [0 0 0 0] ------- [0:0 2:0 32 0] [0 0] 0 0
s 12.038038368 _2_ RTR  --- 5 message 32 [0 0 0 0] ------- [2:255 -1:255 32 0] 
r 12.039339053 _1_ RTR  --- 5 message 32 [0 ffffffff 2 800] ------- [2:255 -1:255 32 0] 
s 12.042398665 _0_ RTR  --- 4 message 32 [0 0 0 0] ------- [0:255 -1:255 32 0] 
r 12.043538999 _1_ RTR  --- 4 message 32 [0 ffffffff 0 800] ------- [0:255 -1:255 32 0] 
s 12.182252985 _1_ RTR  --- 6 message 32 [0 0 0 0] ------- [1:255 -1:255 32 0] 
r 12.183093318 _0_ RTR  --- 6 message 32 [0 ffffffff 1 800] ------- [1:255 -1:255 32 0] 
s 12.183093318 _0_ RTR  --- 3 tcp 80 [0 0 0 0] ------- [0:0 2:0 32 1] [0 0] 0 0
r 12.183093666 _2_ RTR  --- 6 message 32 [0 ffffffff 1 800] ------- [1:255 -1:255 32 0] 
r 12.188846652 _1_ RTR  --- 3 tcp 80 [13a 1 0 800] ------- [0:0 2:0 32 1] [0 0] 1 0
f 12.188846652 _1_ RTR  --- 3 tcp 80 [13a 1 0 800] ------- [0:0 2:0 31 2] [0 0] 1 0
r 12.194266417 _2_ AGT  --- 3 tcp 80 [13a 2 1 800] ------- [0:0 2:0 31 2] [0 0] 2 0
s 12.194266417 _2_ AGT  --- 7 ack 40 [0 0 0 0] ------- [2:0 0:0 32 0] [0 0] 0 0
r 12.194266417 _2_ RTR  --- 7 ack 40 [0 0 0 0] ------- [2:0 0:0 32 0] [0 0] 0 0
s 12.523333008 _0_ RTR  --- 8 message 56 [0 0 0 0] ------- [0:255 -1:255 32 0] 
r 12.524445342 _1_ RTR  --- 8 message 56 [0 ffffffff 0 800] ------- [0:255 -1:255 32 0] 
s 13.000000000 _0_ AGT  --- 9 tcp 40 [0 0 0 0] ------- [0:0 2:0 32 0] [0 0] 0 0
r 13.000000000 _0_ RTR  --- 9 tcp 40 [0 0 0 0] ------- [0:0 2:0 32 0] [0 0] 0 0
s 13.000000000 _0_ RTR  --- 9 tcp 60 [0 0 0 0] ------- [0:0 2:0 32 1] [0 0] 0 0
r 13.001941000 _1_ RTR  --- 9 tcp 60 [13a 1 0 800] ------- [0:0 2:0 32 1] [0 0] 1 0
f 13.001941000 _1_ RTR  --- 9 tcp 60 [13a 1 0 800] ------- [0:0 2:0 31 2] [0 0] 1 0
r 13.004126972 _2_ AGT  --- 9 tcp 60 [13a 2 1 800] ------- [0:0 2:0 31 2] [0 0] 2 0
s 13.004126972 _2_ AGT  --- 10 ack 40 [0 0 0 0] ------- [2:0 0:0 32 0] [0 0] 0 0
r 13.004126972 _2_ RTR  --- 10 ack 40 [0 0 0 0] ------- [2:0 0:0 32 0] [0 0] 0 0
s 13.179780189 _1_ RTR  --- 11 message 32 [0 0 0 0] ------- [1:255 -1:255 32 0] 
r 13.180940522 _0_ RTR  --- 11 message 32 [0 ffffffff 1 800] ------- [1:255 -1:255 32 0] 
r 13.180940841 _2_ RTR  --- 11 message 32 [0 ffffffff 1 800] ------- [1:255 -1:255 32 0] 
s 13.823220665 _2_ RTR  --- 12 message 44 [0 0 0 0] ------- [2:255 -1:255 32 0] 
r 13.824417299 _1_ RTR  --- 12 message 44 [0 ffffffff 2 800] ------- [2:255 -1:255 32 0] 
s 14.280690492 _1_ RTR  --- 13 message 32 [0 0 0 0] ------- [1:255 -1:255 32 0] 
r 14.281830825 _0_ RTR  --- 13 message 32 [0 ffffffff 1 800] ------- [1:255 -1:255 32 0] 
r 14.281831113 _2_ RTR  --- 13 message 32 [0 ffffffff 1 800] ------- [1:255 -1:255 32 0] 
s 19.000000000 _0_ AGT  --- 14 tcp 40 [0 0 0 0] ------- [0:0 2:0 32 0] [0 0] 0 0
r 19.000000000 _0_ RTR  --- 14 tcp 40 [0 0 0 0] ------- [0:0 2:0 32 0] [0 0] 0 0
s 19.000000000 _0_ RTR  --- 14 tcp 60 [0 0 0 0] ------- [0:0 2:0 32 1] [0 0] 0 0
r 19.001941000 _1_ RTR  --- 14 tcp 60 [13a 1 0 800] ------- [0:0 2:0 32 1] [0 0] 1 0
f 19.001941000 _1_ RTR  --- 14 tcp 60 [13a 1 0 800] ------- [0:0 2:0 31 2] [0 0] 1 0
r 19.004006486 _2_ AGT  --- 14 tcp 60 [13a 2 1 800] ------- [0:0 2:0 31 2] [0 0] 2 0
s 19.004006486 _2_ AGT  --- 15 ack 40 [0 0 0 0] ------- [2:0 0:0 32 0] [0 0] 0 0
r 19.004006486 _2_ RTR  --- 15 ack 40 [0 0 0 0] ------- [2:0 0:0 32 0] [0 0] 0 0
s 25.295869125 _0_ RTR  --- 16 message 56 [0 0 0 0] ------- [0:255 -1:255 32 0] 
r 25.297161458 _1_ RTR  --- 16 message 56 [0 ffffffff 0 800] ------- [0:255 -1:255 32 0] 
r 25.297161810 _2_ RTR  --- 16 message 56 [0 ffffffff 0 800] ------- [0:255 -1:255 32 0] 
s 25.297161810 _2_ RTR  --- 7 ack 80 [0 0 0 0] ------- [2:0 0:0 32 0] [0 0] 0 0
s 25.297161810 _2_ RTR  --- 10 ack 80 [0 0 0 0] ------- [2:0 0:0 32 0] [0 0] 0 0
D 25.297161810 _2_ IFQ  ARP 7 ack 80 [0 0 2 800] ------- [2:0 0:0 32 0] [0 0] 0 0
s 25.297161810 _2_ RTR  --- 15 ack 80 [0 0 0 0] ------- [2:0 0:0 32 0] [0 0] 0 0
D 25.297161810 _2_ IFQ  ARP 10 ack 80 [0 0 2 800] ------- [2:0 0:0 32 0] [0 0] 0 0
r 25.307655082 _0_ AGT  --- 15 ack 80 [13a 0 2 800] ------- [2:0 0:0 32 0] [0 0] 1 0
s 25.307655082 _0_ AGT  --- 17 tcp 1040 [0 0 0 0] ------- [0:0 2:0 32 0] [1 0] 0 0
r 25.307655082 _0_ RTR  --- 17 tcp 1040 [0 0 0 0] ------- [0:0 2:0 32 0] [1 0] 0 0
s 25.307655082 _0_ RTR  --- 17 tcp 1060 [0 0 0 0] ------- [0:0 2:0 32 1] [1 0] 0 0
r 25.317700082 _1_ RTR  --- 17 tcp 1060 [13a 1 0 800] ------- [0:0 2:0 32 1] [1 0] 1 0
f 25.317700082 _1_ RTR  --- 17 tcp 1060 [13a 1 0 800] ------- [0:0 2:0 31 2] [1 0] 1 0
r 25.327765186 _2_ AGT  --- 17 tcp 1060 [13a 2 1 800] ------- [0:0 2:0 31 2] [1 0] 2 0
s 25.327765186 _2_ AGT  --- 18 ack 40 [0 0 0 0] ------- [2:0 0:0 32 0] [1 0] 0 0
r 25.327765186 _2_ RTR  --- 18 ack 40 [0 0 0 0] ------- [2:0 0:0 32 0] [1 0] 0 0
s 25.327765186 _2_ RTR  --- 18 ack 60 [0 0 0 0] ------- [2:0 0:0 32 0] [1 0] 0 0
r 25.329951240 _0_ AGT  --- 18 ack 60 [13a 0 2 800] ------- [2:0 0:0 32 0] [1 0] 1 0
s 25.329951240 _0_ AGT  --- 19 tcp 1040 [0 0 0 0] ------- [0:0 2:0 32 0] [2 0] 0 0
r 25.329951240 _0_ RTR  --- 19 tcp 1040 [0 0 0 0] ------- [0:0 2:0 32 0] [2 0] 0 0
s 25.329951240 _0_ RTR  --- 19 tcp 1060 [0 0 0 0] ------- [0:0 2:0 32 1] [2 0] 0 0
s 25.329951240 _0_ AGT  --- 20 tcp 1040 [0 0 0 0] ------- [0:0 2:0 32 0] [3 0] 0 0
r 25.329951240 _0_ RTR  --- 20 tcp 1040 [0 0 0 0] ------- [0:0 2:0 32 0] [3 0] 0 0
s 25.329951240 _0_ RTR  --- 20 tcp 1060 [0 0 0 0] ------- [0:0 2:0 32 1] [3 0] 0 0
r 25.339956240 _1_ RTR  --- 19 tcp 1060 [13a 1 0 800] ------- [0:0 2:0 32 1] [2 0] 1 0
f 25.339956240 _1_ RTR  --- 19 tcp 1060 [13a 1 0 800] ------- [0:0 2:0 31 2] [2 0] 1 0
r 25.350061573 _1_ RTR  --- 20 tcp 1060 [13a 1 0 800] ------- [0:0 2:0 32 1] [3 0] 1 0
f 25.350061573 _1_ RTR  --- 20 tcp 1060 [13a 1 0 800] ------- [0:0 2:0 31 2] [3 0] 1 0
r 25.360526676 _2_ AGT  --- 19 tcp 1060 [13a 2 1 800] ------- [0:0 2:0 31 2] [2 0] 2 0
s 25.360526676 _2_ AGT  --- 21 ack 40 [0 0 0 0] ------- [2:0 0:0 32 0] [2 0] 0 0
r 25.360526676 _2_ RTR  --- 21 ack 40 [0 0 0 0] ------- [2:0 0:0 32 0] [2 0] 0 0
s 25.360526676 _2_ RTR  --- 21 ack 60 [0 0 0 0] ------- [2:0 0:0 32 0] [2 0] 0 0
r 25.370632146 _2_ AGT  --- 20 tcp 1060 [13a 2 1 800] ------- [0:0 2:0 31 2] [3 0] 2 0
s 25.370632146 _2_ AGT  --- 22 ack 40 [0 0 0 0] ------- [2:0 0:0 32 0] [3 0] 0 0
r 25.370632146 _2_ RTR  --- 22 ack 40 [0 0 0 0] ------- [2:0 0:0 32 0] [3 0] 0 0
s 25.370632146 _2_ RTR  --- 22 ack 60 [0 0 0 0] ------- [2:0 0:0 32 0] [3 0] 0 0
r 25.373078199 _0_ AGT  --- 21 ack 60 [13a 0 2 800] ------- [2:0 0:0 32 0] [2 0] 1 0
s 25.373078199 _0_ AGT  --- 23 tcp 1040 [0 0 0 0] ------- [0:0 2:0 32 0] [4 0] 0 0
r 25.373078199 _0_ RTR  --- 23 tcp 1040 [0 0 0 0] ------- [0:0 2:0 32 0] [4 0] 0 0
s 25.373078199 _0_ RTR  --- 23 tcp 1060 [0 0 0 0] ------- [0:0 2:0 32 1] [4 0] 0 0
r 25.383503199 _1_ RTR  --- 23 tcp 1060 [13a 1 0 800] ------- [0:0 2:0 32 1] [4 0] 1 0
f 25.383503199 _1_ RTR  --- 23 tcp 1060 [13a 1 0 800] ------- [0:0 2:0 31 2] [4 0] 1 0
r 25.385609618 _0_ AGT  --- 22 ack 60 [13a 0 2 800] ------- [2:0 0:0 32 0] [3 0] 1 0
s 25.385609618 _0_ AGT  --- 24 tcp 1040 [0 0 0 0] ------- [0:0 2:0 32 0] [5 0] 0 0
r 25.385609618 _0_ RTR  --- 24 tcp 1040 [0 0 0 0] ------- [0:0 2:0 32 0] [5 0] 0 0
s 25.385609618 _0_ RTR  --- 24 tcp 1060 [0 0 0 0] ------- [0:0 2:0 32 1] [5 0] 0 0
r 25.396541053 _2_ AGT  --- 23 tcp 1060 [13a 2 1 800] ------- [0:0 2:0 31 2] [4 0] 2 0
s 25.396541053 _2_ AGT  --- 25 ack 40 [0 0 0 0] ------- [2:0 0:0 32 0] [4 0] 0 0
r 25.396541053 _2_ RTR  --- 25 ack 40 [0 0 0 0] ------- [2:0 0:0 32 0] [4 0] 0 0
s 25.396541053 _2_ RTR  --- 25 ack 60 [0 0 0 0] ------- [2:0 0:0 32 0] [4 0] 0 0
r 25.398667105 _0_ AGT  --- 25 ack 60 [13a 0 2 800] ------- [2:0 0:0 32 0] [4 0] 1 0
s 25.398667105 _0_ AGT  --- 26 tcp 1040 [0 0 0 0] ------- [0:0 2:0 32 0] [6 0] 0 0
r 25.398667105 _0_ RTR  --- 26 tcp 1040 [0 0 0 0] ------- [0:0 2:0 32 0] [6 0] 0 0
s 25.398667105 _0_ RTR  --- 26 tcp 1060 [0 0 0 0] ------- [0:0 2:0 32 1] [6 0] 0 0
s 25.398667105 _0_ AGT  --- 27 tcp 1040 [0 0 0 0] ------- [0:0 2:0 32 0] [7 0] 0 0
r 25.398667105 _0_ RTR  --- 27 tcp 1040 [0 0 0 0] ------- [0:0 2:0 32 0] [7 0] 0 0
s 25.398667105 _0_ RTR  --- 27 tcp 1060 [0 0 0 0] ------- [0:0 2:0 32 1] [7 0] 0 0
r 25.408852105 _1_ RTR  --- 24 tcp 1060 [13a 1 0 800] ------- [0:0 2:0 32 1] [5 0] 1 0
f 25.408852105 _1_ RTR  --- 24 tcp 1060 [13a 1 0 800] ------- [0:0 2:0 31 2] [5 0] 1 0
r 25.419017439 _1_ RTR  --- 26 tcp 1060 [13a 1 0 800] ------- [0:0 2:0 32 1] [6 0] 1 0
f 25.419017439 _1_ RTR  --- 26 tcp 1060 [13a 1 0 800] ------- [0:0 2:0 31 2] [6 0] 1 0
r 25.429102538 _2_ AGT  --- 24 tcp 1060 [13a 2 1 800] ------- [0:0 2:0 31 2] [5 0] 2 0
s 25.429102538 _2_ AGT  --- 28 ack 40 [0 0 0 0] ------- [2:0 0:0 32 0] [5 0] 0 0
r 25.429102538 _2_ RTR  --- 28 ack 40 [0 0 0 0] ------- [2:0 0:0 32 0] [5 0] 0 0
s 25.429102538 _2_ RTR  --- 28 ack 60 [0 0 0 0] ------- [2:0 0:0 32 0] [5 0] 0 0
r 25.439168222 _1_ RTR  --- 27 tcp 1060 [13a 1 0 800] ------- [0:0 2:0 32 1] [7 0] 1 0
f 25.439168222 _1_ RTR  --- 27 tcp 1060 [13a 1 0 800] ------- [0:0 2:0 31 2] [7 0] 1 0
r 25.449473321 _2_ AGT  --- 26 tcp 1060 [13a 2 1 800] ------- [0:0 2:0 31 2] [6 0] 2 0
s 25.449473321 _2_ AGT  --- 29 ack 40 [0 0 0 0] ------- [2:0 0:0 32 0] [6 0] 0 0
r 25.449473321 _2_ RTR  --- 29 ack 40 [0 0 0 0] ------- [2:0 0:0 32 0] [6 0] 0 0
s 25.449473321 _2_ RTR  --- 29 ack 60 [0 0 0 0] ------- [2:0 0:0 32 0] [6 0] 0 0
r 25.451519372 _0_ AGT  --- 28 ack 60 [13a 0 2 800] ------- [2:0 0:0 32 0] [5 0] 1 0
s 25.451519372 _0_ AGT  --- 30 tcp 1040 [0 0 0 0] ------- [0:0 2:0 32 0] [8 0] 0 0
r 25.451519372 _0_ RTR  --- 30 tcp 1040 [0 0 0 0] ------- [0:0 2:0 32 0] [8 0] 0 0
s 25.451519372 _0_ RTR  --- 30 tcp 1060 [0 0 0 0] ------- [0:0 2:0 32 1] [8 0] 0 0
r 25.453506107 _0_ AGT  --- 29 ack 60 [13a 0 2 800] ------- [2:0 0:0 32 0] [6 0] 1 0
s 25.453506107 _0_ AGT  --- 31 tcp 1040 [0 0 0 0] ------- [0:0 2:0 32 0] [9 0] 0 0
r 25.453506107 _0_ RTR  --- 31 tcp 1040 [0 0 0 0] ------- [0:0 2:0 32 0] [9 0] 0 0
s 25.453506107 _0_ RTR  --- 31 tcp 1060 [0 0 0 0] ------- [0:0 2:0 32 1] [9 0] 0 0
r 25.463611539 _2_ AGT  --- 27 tcp 1060 [13a 2 1 800] ------- [0:0 2:0 31 2] [7 0] 2 0
s 25.463611539 _2_ AGT  --- 32 ack 40 [0 0 0 0] ------- [2:0 0:0 32 0] [7 0] 0 0
r 25.463611539 _2_ RTR  --- 32 ack 40 [0 0 0 0] ------- [2:0 0:0 32 0] [7 0] 0 0
s 25.463611539 _2_ RTR  --- 32 ack 60 [0 0 0 0] ------- [2:0 0:0 32 0] [7 0] 0 0
r 25.465617590 _0_ AGT  --- 32 ack 60 [13a 0 2 800] ------- [2:0 0:0 32 0] [7 0] 1 0
s 25.465617590 _0_ AGT  --- 33 tcp 1040 [0 0 0 0] ------- [0:0 2:0 32 0] [10 0] 0 0
r 25.465617590 _0_ RTR  --- 33 tcp 1040 [0 0 0 0] ------- [0:0 2:0 32 0] [10 0] 0 0
s 25.465617590 _0_ RTR  --- 33 tcp 1060 [0 0 0 0] ------- [0:0 2:0 32 1] [10 0] 0 0
s 25.465617590 _0_ AGT  --- 34 tcp 1040 [0 0 0 0] ------- [0:0 2:0 32 0] [11 0] 0 0
r 25.465617590 _0_ RTR  --- 34 tcp 1040 [0 0 0 0] ------- [0:0 2:0 32 0] [11 0] 0 0
s 25.465617590 _0_ RTR  --- 34 tcp 1060 [0 0 0 0] ------- [0:0 2:0 32 1] [11 0] 0 0
r 25.475702590 _1_ RTR  --- 30 tcp 1060 [13a 1 0 800] ------- [0:0 2:0 32 1] [8 0] 1 0
f 25.475702590 _1_ RTR  --- 30 tcp 1060 [13a 1 0 800] ------- [0:0 2:0 31 2] [8 0] 1 0
r 25.485967687 _2_ AGT  --- 30 tcp 1060 [13a 2 1 800] ------- [0:0 2:0 31 2] [8 0] 2 0
s 25.485967687 _2_ AGT  --- 35 ack 40 [0 0 0 0] ------- [2:0 0:0 32 0] [8 0] 0 0
r 25.485967687 _2_ RTR  --- 35 ack 40 [0 0 0 0] ------- [2:0 0:0 32 0] [8 0] 0 0
s 25.485967687 _2_ RTR  --- 35 ack 60 [0 0 0 0] ------- [2:0 0:0 32 0] [8 0] 0 0
r 25.496093371 _1_ RTR  --- 31 tcp 1060 [13a 1 0 800] ------- [0:0 2:0 32 1] [9 0] 1 0
f 25.496093371 _1_ RTR  --- 31 tcp 1060 [13a 1 0 800] ------- [0:0 2:0 31 2] [9 0] 1 0
r 25.506238704 _1_ RTR  --- 33 tcp 1060 [13a 1 0 800] ------- [0:0 2:0 32 1] [10 0] 1 0
f 25.506238704 _1_ RTR  --- 33 tcp 1060 [13a 1 0 800] ------- [0:0 2:0 31 2] [10 0] 1 0
r 25.517130037 _1_ RTR  --- 34 tcp 1060 [13a 1 0 800] ------- [0:0 2:0 32 1] [11 0] 1 0
f 25.517130037 _1_ RTR  --- 34 tcp 1060 [13a 1 0 800] ------- [0:0 2:0 31 2] [11 0] 1 0
r 25.519216452 _0_ AGT  --- 35 ack 60 [13a 0 2 800] ------- [2:0 0:0 32 0] [8 0] 1 0
s 25.519216452 _0_ AGT  --- 36 tcp 1040 [0 0 0 0] ------- [0:0 2:0 32 0] [12 0] 0 0
r 25.519216452 _0_ RTR  --- 36 tcp 1040 [0 0 0 0] ------- [0:0 2:0 32 0] [12 0] 0 0
s 25.519216452 _0_ RTR  --- 36 tcp 1060 [0 0 0 0] ------- [0:0 2:0 32 1] [12 0] 0 0
r 25.529261452 _1_ RTR  --- 36 tcp 1060 [13a 1 0 800] ------- [0:0 2:0 32 1] [12 0] 1 0
f 25.529261452 _1_ RTR  --- 36 tcp 1060 [13a 1 0 800] ------- [0:0 2:0 31 2] [12 0] 1 0
r 25.539966548 _2_ AGT  --- 31 tcp 1060 [13a 2 1 800] ------- [0:0 2:0 31 2] [9 0] 2 0
s 25.539966548 _2_ AGT  --- 37 ack 40 [0 0 0 0] ------- [2:0 0:0 32 0] [9 0] 0 0
r 25.539966548 _2_ RTR  --- 37 ack 40 [0 0 0 0] ------- [2:0 0:0 32 0] [9 0] 0 0
s 25.539966548 _2_ RTR  --- 37 ack 60 [0 0 0 0] ------- [2:0 0:0 32 0] [9 0] 0 0
r 25.549972008 _2_ AGT  --- 33 tcp 1060 [13a 2 1 800] ------- [0:0 2:0 31 2] [10 0] 2 0
s 25.549972008 _2_ AGT  --- 38 ack 40 [0 0 0 0] ------- [2:0 0:0 32 0] [10 0] 0 0
r 25.549972008 _2_ RTR  --- 38 ack 40 [0 0 0 0] ------- [2:0 0:0 32 0] [10 0] 0 0
s 25.549972008 _2_ RTR  --- 38 ack 60 [0 0 0 0] ------- [2:0 0:0 32 0] [10 0] 0 0
r 25.559977467 _2_ AGT  --- 34 tcp 1060 [13a 2 1 800] ------- [0:0 2:0 31 2] [11 0] 2 0
s 25.559977467 _2_ AGT  --- 39 ack 40 [0 0 0 0] ------- [2:0 0:0 32 0] [11 0] 0 0
r 25.559977467 _2_ RTR  --- 39 ack 40 [0 0 0 0] ------- [2:0 0:0 32 0] [11 0] 0 0
s 25.559977467 _2_ RTR  --- 39 ack 60 [0 0 0 0] ------- [2:0 0:0 32 0] [11 0] 0 0
r 25.570022926 _2_ AGT  --- 36 tcp 1060 [13a 2 1 800] ------- [0:0 2:0 31 2] [12 0] 2 0
s 25.570022926 _2_ AGT  --- 40 ack 40 [0 0 0 0] ------- [2:0 0:0 32 0] [12 0] 0 0
r 25.570022926 _2_ RTR  --- 40 ack 40 [0 0 0 0] ------- [2:0 0:0 32 0] [12 0] 0 0
s 25.570022926 _2_ RTR  --- 40 ack 60 [0 0 0 0] ------- [2:0 0:0 32 0] [12 0] 0 0
r 25.572328974 _0_ AGT  --- 37 ack 60 [13a 0 2 800] ------- [2:0 0:0 32 0] [9 0] 1 0
s 25.572328974 _0_ AGT  --- 41 tcp 1040 [0 0 0 0] ------- [0:0 2:0 32 0] [13 0] 0 0
r 25.572328974 _0_ RTR  --- 41 tcp 1040 [0 0 0 0] ------- [0:0 2:0 32 0] [13 0] 0 0
s 25.572328974 _0_ RTR  --- 41 tcp 1060 [0 0 0 0] ------- [0:0 2:0 32 1] [13 0] 0 0
r 25.582333974 _1_ RTR  --- 41 tcp 1060 [13a 1 0 800] ------- [0:0 2:0 32 1] [13 0] 1 0
f 25.582333974 _1_ RTR  --- 41 tcp 1060 [13a 1 0 800] ------- [0:0 2:0 31 2] [13 0] 1 0
r 25.584340387 _0_ AGT  --- 38 ack 60 [13a 0 2 800] ------- [2:0 0:0 32 0] [10 0] 1 0
s 25.584340387 _0_ AGT  --- 42 tcp 1040 [0 0 0 0] ------- [0:0 2:0 32 0] [14 0] 0 0
r 25.584340387 _0_ RTR  --- 42 tcp 1040 [0 0 0 0] ------- [0:0 2:0 32 0] [14 0] 0 0
s 25.584340387 _0_ RTR  --- 42 tcp 1060 [0 0 0 0] ------- [0:0 2:0 32 1] [14 0] 0 0
r 25.594685813 _2_ AGT  --- 41 tcp 1060 [13a 2 1 800] ------- [0:0 2:0 31 2] [13 0] 2 0
s 25.594685813 _2_ AGT  --- 43 ack 40 [0 0 0 0] ------- [2:0 0:0 32 0] [13 0] 0 0
r 25.594685813 _2_ RTR  --- 43 ack 40 [0 0 0 0] ------- [2:0 0:0 32 0] [13 0] 0 0
s 25.594685813 _2_ RTR  --- 43 ack 60 [0 0 0 0] ------- [2:0 0:0 32 0] [13 0] 0 0
r 25.596691861 _0_ AGT  --- 39 ack 60 [13a 0 2 800] ------- [2:0 0:0 32 0] [11 0] 1 0
s 25.596691861 _0_ AGT  --- 44 tcp 1040 [0 0 0 0] ------- [0:0 2:0 32 0] [15 0] 0 0
r 25.596691861 _0_ RTR  --- 44 tcp 1040 [0 0 0 0] ------- [0:0 2:0 32 0] [15 0] 0 0
s 25.596691861 _0_ RTR  --- 44 tcp 1060 [0 0 0 0] ------- [0:0 2:0 32 1] [15 0] 0 0
r 25.606736861 _1_ RTR  --- 42 tcp 1060 [13a 1 0 800] ------- [0:0 2:0 32 1] [14 0] 1 0
f 25.606736861 _1_ RTR  --- 42 tcp 1060 [13a 1 0 800] ------- [0:0 2:0 31 2] [14 0] 1 0
r 25.616902195 _1_ RTR  --- 44 tcp 1060 [13a 1 0 800] ------- [0:0 2:0 32 1] [15 0] 1 0
f 25.616902195 _1_ RTR  --- 44 tcp 1060 [13a 1 0 800] ------- [0:0 2:0 31 2] [15 0] 1 0
r 25.618988606 _0_ AGT  --- 40 ack 60 [13a 0 2 800] ------- [2:0 0:0 32 0] [12 0] 1 0
s 25.618988606 _0_ AGT  --- 45 tcp 1040 [0 0 0 0] ------- [0:0 2:0 32 0] [16 0] 0 0
r 25.618988606 _0_ RTR  --- 45 tcp 1040 [0 0 0 0] ------- [0:0 2:0 32 0] [16 0] 0 0
s 25.618988606 _0_ RTR  --- 45 tcp 1060 [0 0 0 0] ------- [0:0 2:0 32 1] [16 0] 0 0
s 25.618988606 _0_ AGT  --- 46 tcp 1040 [0 0 0 0] ------- [0:0 2:0 32 0] [17 0] 0 0
r 25.618988606 _0_ RTR  --- 46 tcp 1040 [0 0 0 0] ------- [0:0 2:0 32 0] [17 0] 0 0
s 25.618988606 _0_ RTR  --- 46 tcp 1060 [0 0 0 0] ------- [0:0 2:0 32 1] [17 0] 0 0
r 25.629134031 _2_ AGT  --- 42 tcp 1060 [13a 2 1 800] ------- [0:0 2:0 31 2] [14 0] 2 0
s 25.629134031 _2_ AGT  --- 47 ack 40 [0 0 0 0] ------- [2:0 0:0 32 0] [14 0] 0 0
r 25.629134031 _2_ RTR  --- 47 ack 40 [0 0 0 0] ------- [2:0 0:0 32 0] [14 0] 0 0
s 25.629134031 _2_ RTR  --- 47 ack 60 [0 0 0 0] ------- [2:0 0:0 32 0] [14 0] 0 0
r 25.631140078 _0_ AGT  --- 43 ack 60 [13a 0 2 800] ------- [2:0 0:0 32 0] [13 0] 1 0
s 25.631140078 _0_ AGT  --- 48 tcp 1040 [0 0 0 0] ------- [0:0 2:0 32 0] [18 0] 0 0
r 25.631140078 _0_ RTR  --- 48 tcp 1040 [0 0 0 0] ------- [0:0 2:0 32 0] [18 0] 0 0
s 25.631140078 _0_ RTR  --- 48 tcp 1060 [0 0 0 0] ------- [0:0 2:0 32 1] [18 0] 0 0
r 25.641265503 _2_ AGT  --- 44 tcp 1060 [13a 2 1 800] ------- [0:0 2:0 31 2] [15 0] 2 0
s 25.641265503 _2_ AGT  --- 49 ack 40 [0 0 0 0] ------- [2:0 0:0 32 0] [15 0] 0 0
r 25.641265503 _2_ RTR  --- 49 ack 40 [0 0 0 0] ------- [2:0 0:0 32 0] [15 0] 0 0
s 25.641265503 _2_ RTR  --- 49 ack 60 [0 0 0 0] ------- [2:0 0:0 32 0] [15 0] 0 0
r 25.643351550 _0_ AGT  --- 47 ack 60 [13a 0 2 800] ------- [2:0 0:0 32 0] [14 0] 1 0
s 25.643351550 _0_ AGT  --- 50 tcp 1040 [0 0 0 0] ------- [0:0 2:0 32 0] [19 0] 0 0
r 25.643351550 _0_ RTR  --- 50 tcp 1040 [0 0 0 0] ------- [0:0 2:0 32 0] [19 0] 0 0
s 25.643351550 _0_ RTR  --- 50 tcp 1060 [0 0 0 0] ------- [0:0 2:0 32 1] [19 0] 0 0
r 25.653396550 _1_ RTR  --- 45 tcp 1060 [13a 1 0 800] ------- [0:0 2:0 32 1] [16 0] 1 0
f 25.653396550 _1_ RTR  --- 45 tcp 1060 [13a 1 0 800] ------- [0:0 2:0 31 2] [16 0] 1 0
r 25.663381640 _2_ AGT  --- 45 tcp 1060 [13a 2 1 800] ------- [0:0 2:0 31 2] [16 0] 2 0
s 25.663381640 _2_ AGT  --- 51 ack 40 [0 0 0 0] ------- [2:0 0:0 32 0] [16 0] 0 0
r 25.663381640 _2_ RTR  --- 51 ack 40 [0 0 0 0] ------- [2:0 0:0 32 0] [16 0] 0 0
s 25.663381640 _2_ RTR  --- 51 ack 60 [0 0 0 0] ------- [2:0 0:0 32 0] [16 0] 0 0
r 25.665427687 _0_ AGT  --- 49 ack 60 [13a 0 2 800] ------- [2:0 0:0 32 0] [15 0] 1 0
s 25.665427687 _0_ AGT  --- 52 tcp 1040 [0 0 0 0] ------- [0:0 2:0 32 0] [20 0] 0 0
r 25.665427687 _0_ RTR  --- 52 tcp 1040 [0 0 0 0] ------- [0:0 2:0 32 0] [20 0] 0 0
s 25.665427687 _0_ RTR  --- 52 tcp 1060 [0 0 0 0] ------- [0:0 2:0 32 1] [20 0] 0 0
r 25.675912687 _1_ RTR  --- 46 tcp 1060 [13a 1 0 800] ------- [0:0 2:0 32 1] [17 0] 1 0
f 25.675912687 _1_ RTR  --- 46 tcp 1060 [13a 1 0 800] ------- [0:0 2:0 31 2] [17 0] 1 0
r 25.685937776 _2_ AGT  --- 46 tcp 1060 [13a 2 1 800] ------- [0:0 2:0 31 2] [17 0] 2 0
s 25.685937776 _2_ AGT  --- 53 ack 40 [0 0 0 0] ------- [2:0 0:0 32 0] [17 0] 0 0
r 25.685937776 _2_ RTR  --- 53 ack 40 [0 0 0 0] ------- [2:0 0:0 32 0] [17 0] 0 0
s 25.685937776 _2_ RTR  --- 53 ack 60 [0 0 0 0] ------- [2:0 0:0 32 0] [17 0] 0 0
r 25.688003822 _0_ AGT  --- 51 ack 60 [13a 0 2 800] ------- [2:0 0:0 32 0] [16 0] 1 0
s 25.688003822 _0_ AGT  --- 54 tcp 1040 [0 0 0 0] ------- [0:0 2:0 32 0] [21 0] 0 0
r 25.688003822 _0_ RTR  --- 54 tcp 1040 [0 0 0 0] ------- [0:0 2:0 32 0] [21 0] 0 0
s 25.688003822 _0_ RTR  --- 54 tcp 1060 [0 0 0 0] ------- [0:0 2:0 32 1] [21 0] 0 0
r 25.698488822 _1_ RTR  --- 48 tcp 1060 [13a 1 0 800] ------- [0:0 2:0 32 1] [18 0] 1 0
f 25.698488822 _1_ RTR  --- 48 tcp 1060 [13a 1 0 800] ------- [0:0 2:0 31 2] [18 0] 1 0
r 25.700515231 _0_ AGT  --- 53 ack 60 [13a 0 2 800] ------- [2:0 0:0 32 0] [17 0] 1 0
s 25.700515231 _0_ AGT  --- 55 tcp 1040 [0 0 0 0] ------- [0:0 2:0 32 0] [22 0] 0 0
r 25.700515231 _0_ RTR  --- 55 tcp 1040 [0 0 0 0] ------- [0:0 2:0 32 0] [22 0] 0 0
s 25.700515231 _0_ RTR  --- 55 tcp 1060 [0 0 0 0] ------- [0:0 2:0 32 1] [22 0] 0 0
s 25.700515231 _0_ AGT  --- 56 tcp 1040 [0 0 0 0] ------- [0:0 2:0 32 0] [23 0] 0 0
r 25.700515231 _0_ RTR  --- 56 tcp 1040 [0 0 0 0] ------- [0:0 2:0 32 0] [23 0] 0 0
s 25.700515231 _0_ RTR  --- 56 tcp 1060 [0 0 0 0] ------- [0:0 2:0 32 1] [23 0] 0 0
r 25.710600652 _2_ AGT  --- 48 tcp 1060 [13a 2 1 800] ------- [0:0 2:0 31 2] [18 0] 2 0
s 25.710600652 _2_ AGT  --- 57 ack 40 [0 0 0 0] ------- [2:0 0:0 32 0] [18 0] 0 0
r 25.710600652 _2_ RTR  --- 57 ack 40 [0 0 0 0] ------- [2:0 0:0 32 0] [18 0] 0 0
s 25.710600652 _2_ RTR  --- 57 ack 60 [0 0 0 0] ------- [2:0 0:0 32 0] [18 0] 0 0
r 25.720686334 _1_ RTR  --- 50 tcp 1060 [13a 1 0 800] ------- [0:0 2:0 32 1] [19 0] 1 0
f 25.720686334 _1_ RTR  --- 50 tcp 1060 [13a 1 0 800] ------- [0:0 2:0 31 2] [19 0] 1 0
r 25.730671668 _1_ RTR  --- 52 tcp 1060 [13a 1 0 800] ------- [0:0 2:0 32 1] [20 0] 1 0
f 25.730671668 _1_ RTR  --- 52 tcp 1060 [13a 1 0 800] ------- [0:0 2:0 31 2] [20 0] 1 0
r 25.740836755 _2_ AGT  --- 50 tcp 1060 [13a 2 1 800] ------- [0:0 2:0 31 2] [19 0] 2 0
s 25.740836755 _2_ AGT  --- 58 ack 40 [0 0 0 0] ------- [2:0 0:0 32 0] [19 0] 0 0
r 25.740836755 _2_ RTR  --- 58 ack 40 [0 0 0 0] ------- [2:0 0:0 32 0] [19 0] 0 0
s 25.740836755 _2_ RTR  --- 58 ack 60 [0 0 0 0] ------- [2:0 0:0 32 0] [19 0] 0 0
r 25.742982800 _0_ AGT  --- 57 ack 60 [13a 0 2 800] ------- [2:0 0:0 32 0] [18 0] 1 0
s 25.742982800 _0_ AGT  --- 59 tcp 1040 [0 0 0 0] ------- [0:0 2:0 32 0] [24 0] 0 0
r 25.742982800 _0_ RTR  --- 59 tcp 1040 [0 0 0 0] ------- [0:0 2:0 32 0] [24 0] 0 0
s 25.742982800 _0_ RTR  --- 59 tcp 1060 [0 0 0 0] ------- [0:0 2:0 32 1] [24 0] 0 0
r 25.753047800 _1_ RTR  --- 54 tcp 1060 [13a 1 0 800] ------- [0:0 2:0 32 1] [21 0] 1 0
f 25.753047800 _1_ RTR  --- 54 tcp 1060 [13a 1 0 800] ------- [0:0 2:0 31 2] [21 0] 1 0
r 25.763033133 _1_ RTR  --- 55 tcp 1060 [13a 1 0 800] ------- [0:0 2:0 32 1] [22 0] 1 0
f 25.763033133 _1_ RTR  --- 55 tcp 1060 [13a 1 0 800] ------- [0:0 2:0 31 2] [22 0] 1 0
r 25.773138466 _1_ RTR  --- 56 tcp 1060 [13a 1 0 800] ------- [0:0 2:0 32 1] [23 0] 1 0
f 25.773138466 _1_ RTR  --- 56 tcp 1060 [13a 1 0 800] ------- [0:0 2:0 31 2] [23 0] 1 0
r 25.775184872 _0_ AGT  --- 58 ack 60 [13a 0 2 800] ------- [2:0 0:0 32 0] [19 0] 1 0
s 25.775184872 _0_ AGT  --- 60 tcp 1040 [0 0 0 0] ------- [0:0 2:0 32 0] [25 0] 0 0
r 25.775184872 _0_ RTR  --- 60 tcp 1040 [0 0 0 0] ------- [0:0 2:0 32 0] [25 0] 0 0
s 25.775184872 _0_ RTR  --- 60 tcp 1060 [0 0 0 0] ------- [0:0 2:0 32 1] [25 0] 0 0
r 25.785290291 _2_ AGT  --- 52 tcp 1060 [13a 2 1 800] ------- [0:0 2:0 31 2] [20 0] 2 0
s 25.785290291 _2_ AGT  --- 61 ack 40 [0 0 0 0] ------- [2:0 0:0 32 0] [20 0] 0 0
r 25.785290291 _2_ RTR  --- 61 ack 40 [0 0 0 0] ------- [2:0 0:0 32 0] [20 0] 0 0
s 25.785290291 _2_ RTR  --- 61 ack 60 [0 0 0 0] ------- [2:0 0:0 32 0] [20 0] 0 0
r 25.787316335 _0_ AGT  --- 61 ack 60 [13a 0 2 800] ------- [2:0 0:0 32 0] [20 0] 1 0
s 25.787316335 _0_ AGT  --- 62 tcp 1040 [0 0 0 0] ------- [0:0 2:0 32 0] [26 0] 0 0
r 25.787316335 _0_ RTR  --- 62 tcp 1040 [0 0 0 0] ------- [0:0 2:0 32 0] [26 0] 0 0
s 25.787316335 _0_ RTR  --- 62 tcp 1060 [0 0 0 0] ------- [0:0 2:0 32 1] [26 0] 0 0
r 25.797461335 _1_ RTR  --- 59 tcp 1060 [13a 1 0 800] ------- [0:0 2:0 32 1] [24 0] 1 0
f 25.797461335 _1_ RTR  --- 59 tcp 1060 [13a 1 0 800] ------- [0:0 2:0 31 2] [24 0] 1 0
r 25.807586668 _1_ RTR  --- 60 tcp 1060 [13a 1 0 800] ------- [0:0 2:0 32 1] [25 0] 1 0
f 25.807586668 _1_ RTR  --- 60 tcp 1060 [13a 1 0 800] ------- [0:0 2:0 31 2] [25 0] 1 0
r 25.817771753 _2_ AGT  --- 54 tcp 1060 [13a 2 1 800] ------- [0:0 2:0 31 2] [21 0] 2 0
s 25.817771753 _2_ AGT  --- 63 ack 40 [0 0 0 0] ------- [2:0 0:0 32 0] [21 0] 0 0
r 25.817771753 _2_ RTR  --- 63 ack 40 [0 0 0 0] ------- [2:0 0:0 32 0] [21 0] 0 0
s 25.817771753 _2_ RTR  --- 63 ack 60 [0 0 0 0] ------- [2:0 0:0 32 0] [21 0] 0 0
r 25.819897796 _0_ AGT  --- 63 ack 60 [13a 0 2 800] ------- [2:0 0:0 32 0] [21 0] 1 0
s 25.819897796 _0_ AGT  --- 64 tcp 1040 [0 0 0 0] ------- [0:0 2:0 32 0] [27 0] 0 0
r 25.819897796 _0_ RTR  --- 64 tcp 1040 [0 0 0 0] ------- [0:0 2:0 32 0] [27 0] 0 0
s 25.819897796 _0_ RTR  --- 64 tcp 1060 [0 0 0 0] ------- [0:0 2:0 32 1] [27 0] 0 0
r 25.830122796 _1_ RTR  --- 62 tcp 1060 [13a 1 0 800] ------- [0:0 2:0 32 1] [26 0] 1 0
f 25.830122796 _1_ RTR  --- 62 tcp 1060 [13a 1 0 800] ------- [0:0 2:0 31 2] [26 0] 1 0
r 25.840307879 _2_ AGT  --- 55 tcp 1060 [13a 2 1 800] ------- [0:0 2:0 31 2] [22 0] 2 0
s 25.840307879 _2_ AGT  --- 65 ack 40 [0 0 0 0] ------- [2:0 0:0 32 0] [22 0] 0 0
r 25.840307879 _2_ RTR  --- 65 ack 40 [0 0 0 0] ------- [2:0 0:0 32 0] [22 0] 0 0
s 25.840307879 _2_ RTR  --- 65 ack 60 [0 0 0 0] ------- [2:0 0:0 32 0] [22 0] 0 0
r 25.850293323 _2_ AGT  --- 56 tcp 1060 [13a 2 1 800] ------- [0:0 2:0 31 2] [23 0] 2 0
s 25.850293323 _2_ AGT  --- 66 ack 40 [0 0 0 0] ------- [2:0 0:0 32 0] [23 0] 0 0
r 25.850293323 _2_ RTR  --- 66 ack 40 [0 0 0 0] ------- [2:0 0:0 32 0] [23 0] 0 0
s 25.850293323 _2_ RTR  --- 66 ack 60 [0 0 0 0] ------- [2:0 0:0 32 0] [23 0] 0 0
r 25.860358767 _2_ AGT  --- 59 tcp 1060 [13a 2 1 800] ------- [0:0 2:0 31 2] [24 0] 2 0
s 25.860358767 _2_ AGT  --- 67 ack 40 [0 0 0 0] ------- [2:0 0:0 32 0] [24 0] 0 0
r 25.860358767 _2_ RTR  --- 67 ack 40 [0 0 0 0] ------- [2:0 0:0 32 0] [24 0] 0 0
s 25.860358767 _2_ RTR  --- 67 ack 60 [0 0 0 0] ------- [2:0 0:0 32 0] [24 0] 0 0
r 25.870564448 _1_ RTR  --- 64 tcp 1060 [13a 1 0 800] ------- [0:0 2:0 32 1] [27 0] 1 0
f 25.870564448 _1_ RTR  --- 64 tcp 1060 [13a 1 0 800] ------- [0:0 2:0 31 2] [27 0] 1 0
r 25.872610851 _0_ AGT  --- 65 ack 60 [13a 0 2 800] ------- [2:0 0:0 32 0] [22 0] 1 0
s 25.872610851 _0_ AGT  --- 68 tcp 1040 [0 0 0 0] ------- [0:0 2:0 32 0] [28 0] 0 0
r 25.872610851 _0_ RTR  --- 68 tcp 1040 [0 0 0 0] ------- [0:0 2:0 32 0] [28 0] 0 0
s 25.872610851 _0_ RTR  --- 68 tcp 1060 [0 0 0 0] ------- [0:0 2:0 32 1] [28 0] 0 0
r 25.882835851 _1_ RTR  --- 68 tcp 1060 [13a 1 0 800] ------- [0:0 2:0 32 1] [28 0] 1 0
f 25.882835851 _1_ RTR  --- 68 tcp 1060 [13a 1 0 800] ------- [0:0 2:0 31 2] [28 0] 1 0
r 25.892880932 _2_ AGT  --- 60 tcp 1060 [13a 2 1 800] ------- [0:0 2:0 31 2] [25 0] 2 0
s 25.892880932 _2_ AGT  --- 69 ack 40 [0 0 0 0] ------- [2:0 0:0 32 0] [25 0] 0 0
r 25.892880932 _2_ RTR  --- 69 ack 40 [0 0 0 0] ------- [2:0 0:0 32 0] [25 0] 0 0
s 25.892880932 _2_ RTR  --- 69 ack 60 [0 0 0 0] ------- [2:0 0:0 32 0] [25 0] 0 0
r 25.894946974 _0_ AGT  --- 66 ack 60 [13a 0 2 800] ------- [2:0 0:0 32 0] [23 0] 1 0
s 25.894946974 _0_ AGT  --- 70 tcp 1040 [0 0 0 0] ------- [0:0 2:0 32 0] [29 0] 0 0
r 25.894946974 _0_ RTR  --- 70 tcp 1040 [0 0 0 0] ------- [0:0 2:0 32 0] [29 0] 0 0
s 25.894946974 _0_ RTR  --- 70 tcp 1060 [0 0 0 0] ------- [0:0 2:0 32 1] [29 0] 0 0
s 25.894946974 _0_ AGT  --- 71 tcp 1040 [0 0 0 0] ------- [0:0 2:0 32 0] [30 0] 0 0
r 25.894946974 _0_ RTR  --- 71 tcp 1040 [0 0 0 0] ------- [0:0 2:0 32 0] [30 0] 0 0
s 25.894946974 _0_ RTR  --- 71 tcp 1060 [0 0 0 0] ------- [0:0 2:0 32 1] [30 0] 0 0
r 25.896973696 _0_ AGT  --- 67 ack 60 [13a 0 2 800] ------- [2:0 0:0 32 0] [24 0] 1 0
s 25.896973696 _0_ AGT  --- 72 tcp 1040 [0 0 0 0] ------- [0:0 2:0 32 0] [31 0] 0 0
r 25.896973696 _0_ RTR  --- 72 tcp 1040 [0 0 0 0] ------- [0:0 2:0 32 0] [31 0] 0 0
s 25.896973696 _0_ RTR  --- 72 tcp 1060 [0 0 0 0] ------- [0:0 2:0 32 1] [31 0] 0 0
r 25.907138696 _1_ RTR  --- 70 tcp 1060 [13a 1 0 800] ------- [0:0 2:0 32 1] [29 0] 1 0
f 25.907138696 _1_ RTR  --- 70 tcp 1060 [13a 1 0 800] ------- [0:0 2:0 31 2] [29 0] 1 0
r 25.917343777 _2_ AGT  --- 62 tcp 1060 [13a 2 1 800] ------- [0:0 2:0 31 2] [26 0] 2 0
s 25.917343777 _2_ AGT  --- 73 ack 40 [0 0 0 0] ------- [2:0 0:0 32 0] [26 0] 0 0
r 25.917343777 _2_ RTR  --- 73 ack 40 [0 0 0 0] ------- [2:0 0:0 32 0] [26 0] 0 0
s 25.917343777 _2_ RTR  --- 73 ack 60 [0 0 0 0] ------- [2:0 0:0 32 0] [26 0] 0 0
r 25.927409217 _2_ AGT  --- 64 tcp 1060 [13a 2 1 800] ------- [0:0 2:0 31 2] [27 0] 2 0
s 25.927409217 _2_ AGT  --- 74 ack 40 [0 0 0 0] ------- [2:0 0:0 32 0] [27 0] 0 0
r 25.927409217 _2_ RTR  --- 74 ack 40 [0 0 0 0] ------- [2:0 0:0 32 0] [27 0] 0 0
s 25.927409217 _2_ RTR  --- 74 ack 60 [0 0 0 0] ------- [2:0 0:0 32 0] [27 0] 0 0
r 25.929475258 _0_ AGT  --- 69 ack 60 [13a 0 2 800] ------- [2:0 0:0 32 0] [25 0] 1 0
s 25.929475258 _0_ AGT  --- 75 tcp 1040 [0 0 0 0] ------- [0:0 2:0 32 0] [32 0] 0 0
r 25.929475258 _0_ RTR  --- 75 tcp 1040 [0 0 0 0] ------- [0:0 2:0 32 0] [32 0] 0 0
s 25.929475258 _0_ RTR  --- 75 tcp 1060 [0 0 0 0] ------- [0:0 2:0 32 1] [32 0] 0 0
r 25.931461979 _0_ AGT  --- 73 ack 60 [13a 0 2 800] ------- [2:0 0:0 32 0] [26 0] 1 0
s 25.931461979 _0_ AGT  --- 76 tcp 1040 [0 0 0 0] ------- [0:0 2:0 32 0] [33 0] 0 0
r 25.931461979 _0_ RTR  --- 76 tcp 1040 [0 0 0 0] ------- [0:0 2:0 32 0] [33 0] 0 0
s 25.931461979 _0_ RTR  --- 76 tcp 1060 [0 0 0 0] ------- [0:0 2:0 32 1] [33 0] 0 0
r 25.941606979 _1_ RTR  --- 71 tcp 1060 [13a 1 0 800] ------- [0:0 2:0 32 1] [30 0] 1 0
f 25.941606979 _1_ RTR  --- 71 tcp 1060 [13a 1 0 800] ------- [0:0 2:0 31 2] [30 0] 1 0
r 25.951912312 _1_ RTR  --- 72 tcp 1060 [13a 1 0 800] ------- [0:0 2:0 32 1] [31 0] 1 0
f 25.951912312 _1_ RTR  --- 72 tcp 1060 [13a 1 0 800] ------- [0:0 2:0 31 2] [31 0] 1 0
r 25.961977391 _2_ AGT  --- 68 tcp 1060 [13a 2 1 800] ------- [0:0 2:0 31 2] [28 0] 2 0
s 25.961977391 _2_ AGT  --- 77 ack 40 [0 0 0 0] ------- [2:0 0:0 32 0] [28 0] 0 0